 Entering Gaussian System, Link 0=g16
 Input=ACC.gjf
 Output=ACC.log
 Initial command:
 /home/zc/g16/l1.exe "/tmp/Gau-1177009.inp" -scrdir="/tmp/"
 Entering Link 1 = /home/zc/g16/l1.exe PID=   1177010.
  
 Copyright (c) 1988,1990,1992,1993,1995,1998,2003,2009,2016,
            Gaussian, Inc.  All Rights Reserved.
  
 This is part of the Gaussian(R) 16 program.  It is based on
 the Gaussian(R) 09 system (copyright 2009, Gaussian, Inc.),
 the Gaussian(R) 03 system (copyright 2003, Gaussian, Inc.),
 the Gaussian(R) 98 system (copyright 1998, Gaussian, Inc.),
 the Gaussian(R) 94 system (copyright 1995, Gaussian, Inc.),
 the Gaussian 92(TM) system (copyright 1992, Gaussian, Inc.),
 the Gaussian 90(TM) system (copyright 1990, Gaussian, Inc.),
 the Gaussian 88(TM) system (copyright 1988, Gaussian, Inc.),
 the Gaussian 86(TM) system (copyright 1986, Carnegie Mellon
 University), and the Gaussian 82(TM) system (copyright 1983,
 Carnegie Mellon University). Gaussian is a federally registered
 trademark of Gaussian, Inc.
  
 This software contains proprietary and confidential information,
 including trade secrets, belonging to Gaussian, Inc.
  
 This software is provided under written license and may be
 used, copied, transmitted, or stored only in accord with that
 written license.
  
 The following legend is applicable only to US Government
 contracts under FAR:
  
                    RESTRICTED RIGHTS LEGEND
  
 Use, reproduction and disclosure by the US Government is
 subject to restrictions as set forth in subparagraphs (a)
 and (c) of the Commercial Computer Software - Restricted
 Rights clause in FAR 52.227-19.
  
 Gaussian, Inc.
 340 Quinnipiac St., Bldg. 40, Wallingford CT 06492
  
  
 ---------------------------------------------------------------
 Warning -- This program may not be used in any manner that
 competes with the business of Gaussian, Inc. or will provide
 assistance to any competitor of Gaussian, Inc.  The licensee
 of this program is prohibited from giving any competitor of
 Gaussian, Inc. access to this program.  By using this program,
 the user acknowledges that Gaussian, Inc. is engaged in the
 business of creating and licensing software in the field of
 computational chemistry and represents and warrants to the
 licensee that it is not a competitor of Gaussian, Inc. and that
 it will not use this program in any manner prohibited above.
 ---------------------------------------------------------------
  

 Cite this work as:
 Gaussian 16, Revision A.03,
 M. J. Frisch, G. W. Trucks, H. B. Schlegel, G. E. Scuseria, 
 M. A. Robb, J. R. Cheeseman, G. Scalmani, V. Barone, 
 G. A. Petersson, H. Nakatsuji, X. Li, M. Caricato, A. V. Marenich, 
 J. Bloino, B. G. Janesko, R. Gomperts, B. Mennucci, H. P. Hratchian, 
 J. V. Ortiz, A. F. Izmaylov, J. L. Sonnenberg, D. Williams-Young, 
 F. Ding, F. Lipparini, F. Egidi, J. Goings, B. Peng, A. Petrone, 
 T. Henderson, D. Ranasinghe, V. G. Zakrzewski, J. Gao, N. Rega, 
 G. Zheng, W. Liang, M. Hada, M. Ehara, K. Toyota, R. Fukuda, 
 J. Hasegawa, M. Ishida, T. Nakajima, Y. Honda, O. Kitao, H. Nakai, 
 T. Vreven, K. Throssell, J. A. Montgomery, Jr., J. E. Peralta, 
 F. Ogliaro, M. J. Bearpark, J. J. Heyd, E. N. Brothers, K. N. Kudin, 
 V. N. Staroverov, T. A. Keith, R. Kobayashi, J. Normand, 
 K. Raghavachari, A. P. Rendell, J. C. Burant, S. S. Iyengar, 
 J. Tomasi, M. Cossi, J. M. Millam, M. Klene, C. Adamo, R. Cammi, 
 J. W. Ochterski, R. L. Martin, K. Morokuma, O. Farkas, 
 J. B. Foresman, and D. J. Fox, Gaussian, Inc., Wallingford CT, 2016.
 
 ******************************************
 Gaussian 16:  ES64L-G16RevA.03 25-Dec-2016
                 9-Jul-2021 
 ******************************************
 %chk=ACC.chk
 %nproc=40
 Will use up to   40 processors via shared memory.
 %mem=100GB
 -----------------------------------------------------------------
 #p opt m062x def2svp em(gd3) scrf(pcm,solvent=diphenylether) freq
 -----------------------------------------------------------------
 1/18=20,19=15,26=3,38=1/1,3;
 2/9=110,12=2,17=6,18=5,40=1/2;
 3/5=43,7=101,11=2,25=1,30=1,70=2201,71=1,72=112,74=-55,124=31/1,2,3;
 4//1;
 5/5=2,38=5,53=112/2;
 6/7=2,8=2,9=2,10=2,28=1/1;
 7//1,2,3,16;
 1/18=20,19=15,26=3/3(2);
 2/9=110/2;
 99//99;
 2/9=110/2;
 3/5=43,7=101,11=2,25=1,30=1,70=2205,71=1,72=112,74=-55,124=31/1,2,3;
 4/5=5,16=3,69=1/1;
 5/5=2,38=5,53=112/2;
 7//1,2,3,16;
 1/18=20,19=15,26=3/3(-5);
 2/9=110/2;
 6/7=2,8=2,9=2,10=2,19=2,28=1/1;
 99/9=1/99;
 Leave Link    1 at Fri Jul  9 15:11:04 2021, MaxMem= 13421772800 cpu:               2.9 elap:               0.1
 (Enter /home/zc/g16/l101.exe)
 ---------------------------
 ACC generated by CoordMagic
 ---------------------------
 Symbolic Z-matrix:
 Charge =  0 Multiplicity = 1
 C                    -1.6222   -0.4908   -0.183 
 C                    -0.7287   -1.3882    0.2858 
 C                     0.5574   -1.1023    0.5398 
 C                     1.1095    0.1162    0.3565 
 C                     0.2227    1.0236   -0.1125 
 C                    -1.0798    0.7341   -0.3698 
 N                     0.5155    2.2314   -0.3588 
 S                    -0.7942    3.144    -0.9378 
 N                    -1.7287    1.7327   -0.8022 
 C                    -2.9153   -0.8387   -0.4229 
 C                     2.4217    0.3473    0.6311 
 C                    -3.9296   -0.0814   -0.8866 
 C                    -5.0697   -0.7702   -0.9965 
 C                    -4.8368   -2.0222   -0.6021 
 S                    -3.4466   -2.2027   -0.1956 
 S                     3.3411   -0.6946    1.1441 
 C                     4.5794    0.0697    1.257 
 C                     4.4064    1.3353    0.8754 
 C                     3.1303    1.4876    0.5084 
 H                    -1.0047   -2.4363    0.4944 
 H                     1.1409   -1.9595    0.918 
 H                    -3.9257    0.9767   -1.1684 
 H                    -6.0325   -0.3765   -1.3499 
 H                    -5.5856   -2.8252   -0.5806 
 H                     5.5267   -0.3569    1.613 
 H                     5.1805    2.1149    0.8655 
 H                     2.7973    2.4711    0.1609 
 
 ITRead=  0  0  0  0  0  0  0  0  0  0  0  0  0  0  0  0  0  0  0  0
 ITRead=  0  0  0  0  0  0  0
 MicOpt= -1 -1 -1 -1 -1 -1 -1 -1 -1 -1 -1 -1 -1 -1 -1 -1 -1 -1 -1 -1
 MicOpt= -1 -1 -1 -1 -1 -1 -1
 NAtoms=     27 NQM=       27 NQMF=       0 NMMI=      0 NMMIF=      0
                NMic=       0 NMicF=      0.
                    Isotopes and Nuclear Properties:
 (Nuclear quadrupole moments (NQMom) in fm**2, nuclear magnetic moments (NMagM)
  in nuclear magnetons)

  Atom         1           2           3           4           5           6           7           8           9          10
 IAtWgt=          12          12          12          12          12          12          14          32          14          12
 AtmWgt=  12.0000000  12.0000000  12.0000000  12.0000000  12.0000000  12.0000000  14.0030740  31.9720718  14.0030740  12.0000000
 NucSpn=           0           0           0           0           0           0           2           0           2           0
 AtZEff=  -0.0000000  -0.0000000  -0.0000000  -0.0000000  -0.0000000  -0.0000000  -0.0000000  -0.0000000  -0.0000000  -0.0000000
 NQMom=    0.0000000   0.0000000   0.0000000   0.0000000   0.0000000   0.0000000   2.0440000   0.0000000   2.0440000   0.0000000
 NMagM=    0.0000000   0.0000000   0.0000000   0.0000000   0.0000000   0.0000000   0.4037610   0.0000000   0.4037610   0.0000000
 AtZNuc=   6.0000000   6.0000000   6.0000000   6.0000000   6.0000000   6.0000000   7.0000000  16.0000000   7.0000000   6.0000000

  Atom        11          12          13          14          15          16          17          18          19          20
 IAtWgt=          12          12          12          12          32          32          12          12          12           1
 AtmWgt=  12.0000000  12.0000000  12.0000000  12.0000000  31.9720718  31.9720718  12.0000000  12.0000000  12.0000000   1.0078250
 NucSpn=           0           0           0           0           0           0           0           0           0           1
 AtZEff=  -0.0000000  -0.0000000  -0.0000000  -0.0000000  -0.0000000  -0.0000000  -0.0000000  -0.0000000  -0.0000000  -0.0000000
 NQMom=    0.0000000   0.0000000   0.0000000   0.0000000   0.0000000   0.0000000   0.0000000   0.0000000   0.0000000   0.0000000
 NMagM=    0.0000000   0.0000000   0.0000000   0.0000000   0.0000000   0.0000000   0.0000000   0.0000000   0.0000000   2.7928460
 AtZNuc=   6.0000000   6.0000000   6.0000000   6.0000000  16.0000000  16.0000000   6.0000000   6.0000000   6.0000000   1.0000000

  Atom        21          22          23          24          25          26          27
 IAtWgt=           1           1           1           1           1           1           1
 AtmWgt=   1.0078250   1.0078250   1.0078250   1.0078250   1.0078250   1.0078250   1.0078250
 NucSpn=           1           1           1           1           1           1           1
 AtZEff=  -0.0000000  -0.0000000  -0.0000000  -0.0000000  -0.0000000  -0.0000000  -0.0000000
 NQMom=    0.0000000   0.0000000   0.0000000   0.0000000   0.0000000   0.0000000   0.0000000
 NMagM=    2.7928460   2.7928460   2.7928460   2.7928460   2.7928460   2.7928460   2.7928460
 AtZNuc=   1.0000000   1.0000000   1.0000000   1.0000000   1.0000000   1.0000000   1.0000000
 Leave Link  101 at Fri Jul  9 15:11:04 2021, MaxMem= 13421772800 cpu:              13.3 elap:               0.4
 (Enter /home/zc/g16/l103.exe)

 GradGradGradGradGradGradGradGradGradGradGradGradGradGradGradGradGradGrad
 Berny optimization.
 Initialization pass.
                           ----------------------------
                           !    Initial Parameters    !
                           ! (Angstroms and Degrees)  !
 --------------------------                            --------------------------
 ! Name  Definition              Value          Derivative Info.                !
 --------------------------------------------------------------------------------
 ! R1    R(1,2)                  1.3503         estimate D2E/DX2                !
 ! R2    R(1,6)                  1.3526         estimate D2E/DX2                !
 ! R3    R(1,10)                 1.3604         estimate D2E/DX2                !
 ! R4    R(2,3)                  1.3418         estimate D2E/DX2                !
 ! R5    R(2,20)                 1.1037         estimate D2E/DX2                !
 ! R6    R(3,4)                  1.3502         estimate D2E/DX2                !
 ! R7    R(3,21)                 1.1038         estimate D2E/DX2                !
 ! R8    R(4,5)                  1.3527         estimate D2E/DX2                !
 ! R9    R(4,11)                 1.3604         estimate D2E/DX2                !
 ! R10   R(5,6)                  1.3589         estimate D2E/DX2                !
 ! R11   R(5,7)                  1.267          estimate D2E/DX2                !
 ! R12   R(6,9)                  1.267          estimate D2E/DX2                !
 ! R13   R(7,8)                  1.6981         estimate D2E/DX2                !
 ! R14   R(8,9)                  1.6981         estimate D2E/DX2                !
 ! R15   R(10,12)                1.3481         estimate D2E/DX2                !
 ! R16   R(10,15)                1.4814         estimate D2E/DX2                !
 ! R17   R(11,16)                1.4812         estimate D2E/DX2                !
 ! R18   R(11,19)                1.3481         estimate D2E/DX2                !
 ! R19   R(12,13)                1.3365         estimate D2E/DX2                !
 ! R20   R(12,22)                1.095          estimate D2E/DX2                !
 ! R21   R(13,14)                1.3332         estimate D2E/DX2                !
 ! R22   R(13,23)                1.0986         estimate D2E/DX2                !
 ! R23   R(14,15)                1.4596         estimate D2E/DX2                !
 ! R24   R(14,24)                1.0982         estimate D2E/DX2                !
 ! R25   R(16,17)                1.4596         estimate D2E/DX2                !
 ! R26   R(17,18)                1.3332         estimate D2E/DX2                !
 ! R27   R(17,25)                1.0982         estimate D2E/DX2                !
 ! R28   R(18,19)                1.3365         estimate D2E/DX2                !
 ! R29   R(18,26)                1.0987         estimate D2E/DX2                !
 ! R30   R(19,27)                1.095          estimate D2E/DX2                !
 ! A1    A(2,1,6)              112.609          estimate D2E/DX2                !
 ! A2    A(2,1,10)             121.3467         estimate D2E/DX2                !
 ! A3    A(6,1,10)             126.0443         estimate D2E/DX2                !
 ! A4    A(1,2,3)              123.9417         estimate D2E/DX2                !
 ! A5    A(1,2,20)             122.0886         estimate D2E/DX2                !
 ! A6    A(3,2,20)             113.9697         estimate D2E/DX2                !
 ! A7    A(2,3,4)              123.9534         estimate D2E/DX2                !
 ! A8    A(2,3,21)             113.9601         estimate D2E/DX2                !
 ! A9    A(4,3,21)             122.0864         estimate D2E/DX2                !
 ! A10   A(3,4,5)              112.6046         estimate D2E/DX2                !
 ! A11   A(3,4,11)             121.3526         estimate D2E/DX2                !
 ! A12   A(5,4,11)             126.0428         estimate D2E/DX2                !
 ! A13   A(4,5,6)              123.4445         estimate D2E/DX2                !
 ! A14   A(4,5,7)              123.7374         estimate D2E/DX2                !
 ! A15   A(6,5,7)              112.8181         estimate D2E/DX2                !
 ! A16   A(1,6,5)              123.4467         estimate D2E/DX2                !
 ! A17   A(1,6,9)              123.7467         estimate D2E/DX2                !
 ! A18   A(5,6,9)              112.8066         estimate D2E/DX2                !
 ! A19   A(5,7,8)              113.602          estimate D2E/DX2                !
 ! A20   A(7,8,9)               87.1663         estimate D2E/DX2                !
 ! A21   A(6,9,8)              113.607          estimate D2E/DX2                !
 ! A22   A(1,10,12)            129.2108         estimate D2E/DX2                !
 ! A23   A(1,10,15)            123.3208         estimate D2E/DX2                !
 ! A24   A(12,10,15)           107.4684         estimate D2E/DX2                !
 ! A25   A(4,11,16)            123.3073         estimate D2E/DX2                !
 ! A26   A(4,11,19)            129.2209         estimate D2E/DX2                !
 ! A27   A(16,11,19)           107.4718         estimate D2E/DX2                !
 ! A28   A(10,12,13)           112.3702         estimate D2E/DX2                !
 ! A29   A(10,12,22)           128.9526         estimate D2E/DX2                !
 ! A30   A(13,12,22)           118.6771         estimate D2E/DX2                !
 ! A31   A(12,13,14)           108.0978         estimate D2E/DX2                !
 ! A32   A(12,13,23)           126.1111         estimate D2E/DX2                !
 ! A33   A(14,13,23)           125.7911         estimate D2E/DX2                !
 ! A34   A(13,14,15)           111.4024         estimate D2E/DX2                !
 ! A35   A(13,14,24)           124.9861         estimate D2E/DX2                !
 ! A36   A(15,14,24)           123.6115         estimate D2E/DX2                !
 ! A37   A(10,15,14)           100.6612         estimate D2E/DX2                !
 ! A38   A(11,16,17)           100.6647         estimate D2E/DX2                !
 ! A39   A(16,17,18)           111.4004         estimate D2E/DX2                !
 ! A40   A(16,17,25)           123.6061         estimate D2E/DX2                !
 ! A41   A(18,17,25)           124.9935         estimate D2E/DX2                !
 ! A42   A(17,18,19)           108.1            estimate D2E/DX2                !
 ! A43   A(17,18,26)           125.7868         estimate D2E/DX2                !
 ! A44   A(19,18,26)           126.1132         estimate D2E/DX2                !
 ! A45   A(11,19,18)           112.3631         estimate D2E/DX2                !
 ! A46   A(11,19,27)           128.9599         estimate D2E/DX2                !
 ! A47   A(18,19,27)           118.677          estimate D2E/DX2                !
 ! D1    D(6,1,2,3)             -0.0271         estimate D2E/DX2                !
 ! D2    D(6,1,2,20)           179.9776         estimate D2E/DX2                !
 ! D3    D(10,1,2,3)           179.9704         estimate D2E/DX2                !
 ! D4    D(10,1,2,20)           -0.0249         estimate D2E/DX2                !
 ! D5    D(2,1,6,5)              0.0246         estimate D2E/DX2                !
 ! D6    D(2,1,6,9)           -179.9766         estimate D2E/DX2                !
 ! D7    D(10,1,6,5)          -179.9728         estimate D2E/DX2                !
 ! D8    D(10,1,6,9)             0.0261         estimate D2E/DX2                !
 ! D9    D(2,1,10,12)         -179.941          estimate D2E/DX2                !
 ! D10   D(2,1,10,15)            0.0285         estimate D2E/DX2                !
 ! D11   D(6,1,10,12)            0.0561         estimate D2E/DX2                !
 ! D12   D(6,1,10,15)         -179.9744         estimate D2E/DX2                !
 ! D13   D(1,2,3,4)             -0.0033         estimate D2E/DX2                !
 ! D14   D(1,2,3,21)          -179.9855         estimate D2E/DX2                !
 ! D15   D(20,2,3,4)           179.9924         estimate D2E/DX2                !
 ! D16   D(20,2,3,21)            0.0103         estimate D2E/DX2                !
 ! D17   D(2,3,4,5)              0.0351         estimate D2E/DX2                !
 ! D18   D(2,3,4,11)          -179.9666         estimate D2E/DX2                !
 ! D19   D(21,3,4,5)          -179.9841         estimate D2E/DX2                !
 ! D20   D(21,3,4,11)            0.0142         estimate D2E/DX2                !
 ! D21   D(3,4,5,6)             -0.0372         estimate D2E/DX2                !
 ! D22   D(3,4,5,7)            179.9707         estimate D2E/DX2                !
 ! D23   D(11,4,5,6)           179.9646         estimate D2E/DX2                !
 ! D24   D(11,4,5,7)            -0.0275         estimate D2E/DX2                !
 ! D25   D(3,4,11,16)            0.0104         estimate D2E/DX2                !
 ! D26   D(3,4,11,19)          179.9826         estimate D2E/DX2                !
 ! D27   D(5,4,11,16)         -179.9916         estimate D2E/DX2                !
 ! D28   D(5,4,11,19)           -0.0193         estimate D2E/DX2                !
 ! D29   D(4,5,6,1)              0.0082         estimate D2E/DX2                !
 ! D30   D(4,5,6,9)           -179.9908         estimate D2E/DX2                !
 ! D31   D(7,5,6,1)           -179.999          estimate D2E/DX2                !
 ! D32   D(7,5,6,9)              0.0021         estimate D2E/DX2                !
 ! D33   D(4,5,7,8)            179.996          estimate D2E/DX2                !
 ! D34   D(6,5,7,8)              0.0032         estimate D2E/DX2                !
 ! D35   D(1,6,9,8)            179.9947         estimate D2E/DX2                !
 ! D36   D(5,6,9,8)             -0.0064         estimate D2E/DX2                !
 ! D37   D(5,7,8,9)             -0.0055         estimate D2E/DX2                !
 ! D38   D(7,8,9,6)              0.0067         estimate D2E/DX2                !
 ! D39   D(1,10,12,13)         179.9753         estimate D2E/DX2                !
 ! D40   D(1,10,12,22)          -0.0116         estimate D2E/DX2                !
 ! D41   D(15,10,12,13)          0.002          estimate D2E/DX2                !
 ! D42   D(15,10,12,22)       -179.9849         estimate D2E/DX2                !
 ! D43   D(1,10,15,14)        -179.9776         estimate D2E/DX2                !
 ! D44   D(12,10,15,14)         -0.0024         estimate D2E/DX2                !
 ! D45   D(4,11,16,17)         179.9712         estimate D2E/DX2                !
 ! D46   D(19,11,16,17)         -0.0063         estimate D2E/DX2                !
 ! D47   D(4,11,19,18)        -179.9714         estimate D2E/DX2                !
 ! D48   D(4,11,19,27)           0.0178         estimate D2E/DX2                !
 ! D49   D(16,11,19,18)          0.0043         estimate D2E/DX2                !
 ! D50   D(16,11,19,27)        179.9935         estimate D2E/DX2                !
 ! D51   D(10,12,13,14)         -0.0007         estimate D2E/DX2                !
 ! D52   D(10,12,13,23)       -179.9949         estimate D2E/DX2                !
 ! D53   D(22,12,13,14)        179.9877         estimate D2E/DX2                !
 ! D54   D(22,12,13,23)         -0.0064         estimate D2E/DX2                !
 ! D55   D(12,13,14,15)         -0.001          estimate D2E/DX2                !
 ! D56   D(12,13,14,24)        179.9974         estimate D2E/DX2                !
 ! D57   D(23,13,14,15)        179.9932         estimate D2E/DX2                !
 ! D58   D(23,13,14,24)         -0.0084         estimate D2E/DX2                !
 ! D59   D(13,14,15,10)          0.0021         estimate D2E/DX2                !
 ! D60   D(24,14,15,10)       -179.9963         estimate D2E/DX2                !
 ! D61   D(11,16,17,18)          0.0065         estimate D2E/DX2                !
 ! D62   D(11,16,17,25)       -179.9969         estimate D2E/DX2                !
 ! D63   D(16,17,18,19)         -0.0043         estimate D2E/DX2                !
 ! D64   D(16,17,18,26)       -179.9985         estimate D2E/DX2                !
 ! D65   D(25,17,18,19)        179.9991         estimate D2E/DX2                !
 ! D66   D(25,17,18,26)          0.005          estimate D2E/DX2                !
 ! D67   D(17,18,19,11)         -0.0001         estimate D2E/DX2                !
 ! D68   D(17,18,19,27)       -179.9905         estimate D2E/DX2                !
 ! D69   D(26,18,19,11)        179.994          estimate D2E/DX2                !
 ! D70   D(26,18,19,27)          0.0036         estimate D2E/DX2                !
 --------------------------------------------------------------------------------
 Trust Radius=3.00D-01 FncErr=1.00D-07 GrdErr=1.00D-06 EigMax=2.50D+02 EigMin=1.00D-04
 Number of steps in this run=    157 maximum allowed number of steps=    162.
 GradGradGradGradGradGradGradGradGradGradGradGradGradGradGradGradGradGrad

 Leave Link  103 at Fri Jul  9 15:11:04 2021, MaxMem= 13421772800 cpu:               0.4 elap:               0.0
 (Enter /home/zc/g16/l202.exe)
                          Input orientation:                          
 ---------------------------------------------------------------------
 Center     Atomic      Atomic             Coordinates (Angstroms)
 Number     Number       Type             X           Y           Z
 ---------------------------------------------------------------------
      1          6           0       -1.622200   -0.490800   -0.183000
      2          6           0       -0.728700   -1.388200    0.285800
      3          6           0        0.557400   -1.102300    0.539800
      4          6           0        1.109500    0.116200    0.356500
      5          6           0        0.222700    1.023600   -0.112500
      6          6           0       -1.079800    0.734100   -0.369800
      7          7           0        0.515500    2.231400   -0.358800
      8         16           0       -0.794200    3.144000   -0.937800
      9          7           0       -1.728700    1.732700   -0.802200
     10          6           0       -2.915300   -0.838700   -0.422900
     11          6           0        2.421700    0.347300    0.631100
     12          6           0       -3.929600   -0.081400   -0.886600
     13          6           0       -5.069700   -0.770200   -0.996500
     14          6           0       -4.836800   -2.022200   -0.602100
     15         16           0       -3.446600   -2.202700   -0.195600
     16         16           0        3.341100   -0.694600    1.144100
     17          6           0        4.579400    0.069700    1.257000
     18          6           0        4.406400    1.335300    0.875400
     19          6           0        3.130300    1.487600    0.508400
     20          1           0       -1.004700   -2.436300    0.494400
     21          1           0        1.140900   -1.959500    0.918000
     22          1           0       -3.925700    0.976700   -1.168400
     23          1           0       -6.032500   -0.376500   -1.349900
     24          1           0       -5.585600   -2.825200   -0.580600
     25          1           0        5.526700   -0.356900    1.613000
     26          1           0        5.180500    2.114900    0.865500
     27          1           0        2.797300    2.471100    0.160900
 ---------------------------------------------------------------------
                    Distance matrix (angstroms):
                    1          2          3          4          5
     1  C    0.000000
     2  C    1.350349   0.000000
     3  C    2.376348   1.341756   0.000000
     4  C    2.849859   2.376383   1.350243   0.000000
     5  C    2.387893   2.623087   2.248771   1.352683   0.000000
     6  C    1.352580   2.248831   2.623006   2.387959   1.358867
     7  N    3.465695   3.881372   3.452940   2.310533   1.266956
     8  S    3.803561   4.694925   4.694804   3.803532   2.492248
     9  N    2.310563   3.453080   3.881294   3.465694   2.187800
    10  C    1.360402   2.363350   3.613298   4.209313   3.662179
    11  C    4.209311   3.613338   2.363322   1.360397   2.417834
    12  C    2.446785   3.650755   4.817678   5.193926   4.365988
    13  C    3.553182   4.568424   5.842496   6.387396   5.657621
    14  C    3.585315   4.250507   5.589950   6.391412   5.925803
    15  S    2.501838   2.877870   4.217074   5.141999   4.886684
    16  S    5.141700   4.216756   2.877566   2.501549   3.775669
    17  C    6.391213   5.589689   4.250229   3.585146   4.665436
    18  C    6.387399   5.842459   4.568295   3.553169   4.310040
    19  C    5.194069   4.817848   3.650806   2.446925   3.009144
    20  H    2.150616   1.103723   2.054695   3.317245   3.720987
    21  H    3.317228   2.054620   1.103766   2.150535   3.286930
    22  H    2.903564   4.234177   5.228611   5.330949   4.280928
    23  H    4.563493   5.641750   6.893804   7.359532   6.528320
    24  H    4.616931   5.138589   6.477664   7.372541   6.983461
    25  H    7.372267   6.477273   5.138222   4.616738   5.745916
    26  H    7.359739   6.893940   5.641765   4.563652   5.169836
    27  H    5.331332   5.229003   4.234372   2.903874   2.966238
                    6          7          8          9         10
     6  C    0.000000
     7  N    2.187924   0.000000
     8  S    2.492350   1.698056   0.000000
     9  N    1.266982   2.341311   1.698071   0.000000
    10  C    2.417763   4.604347   4.541595   2.857269   0.000000
    11  C    3.662228   2.857155   4.541475   4.604292   5.567861
    12  C    3.008901   5.038505   4.498506   2.853427   1.348082
    13  C    4.309869   6.372654   5.796922   4.179060   2.230504
    14  C    4.665426   6.841010   6.568480   4.878483   2.263835
    15  S    3.775829   5.948623   6.014423   4.336648   1.481365
    16  S    4.886454   4.336381   6.014139   5.948339   6.451263
    17  C    5.925745   4.878426   6.568413   6.840906   7.734196
    18  C    5.657769   4.179156   5.797010   6.372733   7.747203
    19  C    4.366227   2.853498   4.498539   5.038614   6.544331
    20  H    3.286931   4.982608   5.765003   4.425597   2.654083
    21  H    3.720943   4.425493   5.764921   4.982573   4.416669
    22  H    2.965765   4.685508   3.815319   2.352116   2.207341
    23  H    5.169455   7.117565   6.324835   4.824043   3.284797
    24  H    5.745893   7.927283   7.662666   5.974884   3.331899
    25  H    6.983382   5.974899   7.662680   7.927197   8.697378
    26  H    6.528701   4.824387   6.325186   7.117889   8.713536
    27  H    4.281439   2.352479   3.815601   4.685880   6.627926
                   11         12         13         14         15
    11  C    0.000000
    12  C    6.544174   0.000000
    13  C    7.747191   1.336545   0.000000
    14  C    7.734412   2.161170   1.333153   0.000000
    15  S    6.451579   2.282692   2.308235   1.459616   0.000000
    16  S    1.481223   7.573826   8.679253   8.466982   7.081104
    17  C    2.263732   8.776157   9.944286   9.823295   8.467026
    18  C    2.230440   8.637163   9.886031   9.944474   8.679522
    19  C    1.348130   7.365458   8.637267   8.776479   7.574269
    20  H    4.416711   4.000969   4.639278   4.007341   2.548243
    21  H    2.654070   5.700334   6.606913   6.168268   4.726987
    22  H    6.627506   1.094990   2.095220   3.184996   3.359235
    23  H    8.713309   2.173458   1.098579   2.167310   3.369613
    24  H    8.697691   3.219380   2.159201   1.098168   2.260764
    25  H    3.331824   9.784963  10.920806  10.727629   9.337994
    26  H    3.284864   9.533494  10.810062  10.936898   9.705383
    27  H    2.207417   7.270742   8.586925   8.891085   7.807547
                   16         17         18         19         20
    16  S    0.000000
    17  C    1.459551   0.000000
    18  C    2.308150   1.333151   0.000000
    19  C    2.282662   2.161188   1.336531   0.000000
    20  H    4.726691   6.167963   6.606825   5.700475   0.000000
    21  H    2.547935   4.006976   4.639074   4.000998   2.238387
    22  H    7.806874   8.890553   8.586594   7.270475   4.790168
    23  H    9.704927  10.936519  10.809850   9.533365   5.737856
    24  H    9.338095  10.727742  10.921070   9.785350   4.721389
    25  H    2.260698   1.098226   2.159321   3.219480   6.945096
    26  H    3.369614   2.167357   1.098683   2.173556   7.688162
    27  H    3.359175   3.184971   2.095174   1.094951   6.216832
                   21         22         23         24         25
    21  H    0.000000
    22  H    6.216492   0.000000
    23  H    7.688103   2.510518   0.000000
    24  H    6.945577   4.189895   2.605316   0.000000
    25  H    4.720868   9.942964  11.932907  11.592566   0.000000
    26  H    5.737757   9.399741  11.698138  11.933344   2.605457
    27  H    4.790311   7.014200   9.399825   9.943522   4.189965
                   26         27
    26  H    0.000000
    27  H    2.510574   0.000000
 Stoichiometry    C14H8N2S3
 Framework group  C1[X(C14H8N2S3)]
 Deg. of freedom    75
 Full point group                 C1      NOp   1
 Largest Abelian subgroup         C1      NOp   1
 Largest concise Abelian subgroup C1      NOp   1
                         Standard orientation:                         
 ---------------------------------------------------------------------
 Center     Atomic      Atomic             Coordinates (Angstroms)
 Number     Number       Type             X           Y           Z
 ---------------------------------------------------------------------
      1          6           0        1.424901   -0.334743   -0.000670
      2          6           0        0.670839   -1.454937   -0.001346
      3          6           0       -0.670917   -1.454822   -0.001409
      4          6           0       -1.424958   -0.334744   -0.000739
      5          6           0       -0.679410    0.793932   -0.000759
      6          6           0        0.679457    0.793878   -0.000649
      7          7           0       -1.170697    1.961757   -0.000735
      8         16           0       -0.000067    3.191805   -0.000661
      9          7           0        1.170614    1.961785   -0.000504
     10          6           0        2.783902   -0.396453   -0.000042
     11          6           0       -2.783959   -0.396361   -0.000164
     12          6           0        3.682631    0.608340    0.001746
     13          6           0        4.942975    0.163500    0.002352
     14          6           0        4.911736   -1.169286    0.000974
     15         16           0        3.540667   -1.669932   -0.000659
     16         16           0       -3.540437   -1.669845    0.000003
     17          6           0       -4.911559   -1.169535    0.001373
     18          6           0       -4.943056    0.163243    0.001766
     19          6           0       -3.682828    0.608371    0.000851
     20          1           0        1.119144   -2.463513   -0.001827
     21          1           0       -1.119242   -2.463437   -0.001751
     22          1           0        3.506871    1.689131    0.002899
     23          1           0        5.848902    0.784925    0.003832
     24          1           0        5.796453   -1.819862    0.001015
     25          1           0       -5.796113   -1.820430    0.001935
     26          1           0       -5.849236    0.784485    0.002775
     27          1           0       -3.507329    1.689166    0.001164
 ---------------------------------------------------------------------
 Rotational constants (GHZ):           0.6716869           0.1836773           0.1442353
 Leave Link  202 at Fri Jul  9 15:11:04 2021, MaxMem= 13421772800 cpu:               0.2 elap:               0.0
 (Enter /home/zc/g16/l301.exe)
 Standard basis: def2SVP (5D, 7F)
 Ernie: Thresh=  0.10000D-02 Tol=  0.10000D-05 Strict=F.
 There are   337 symmetry adapted cartesian basis functions of A   symmetry.
 There are   318 symmetry adapted basis functions of A   symmetry.
   318 basis functions,   567 primitive gaussians,   337 cartesian basis functions
    77 alpha electrons       77 beta electrons
       nuclear repulsion energy      1738.5428154153 Hartrees.
 IExCor= 4336 DFT=T Ex+Corr=M062X ExCW=0 ScaHFX=  0.540000
 ScaDFX=  1.000000  1.000000  1.000000  1.000000 ScalE2=  1.000000  1.000000
 IRadAn=      5 IRanWt=     -1 IRanGd=            0 ICorTp=0 IEmpDi=131
 NAtoms=   27 NActive=   27 NUniq=   27 SFac= 1.00D+00 NAtFMM=   60 NAOKFM=F Big=F
 Integral buffers will be    131072 words long.
 Raffenetti 2 integral format.
 Two-electron integral symmetry is turned on.
 R6Disp:  Grimme-D3 Dispersion energy=       -0.0012879481 Hartrees.
 Nuclear repulsion after empirical dispersion term =     1738.5415274672 Hartrees.
 ------------------------------------------------------------------------------
 Polarizable Continuum Model (PCM)
 =================================
 Model                : PCM.
 Atomic radii         : UFF (Universal Force Field).
 Polarization charges : Total charges.
 Charge compensation  : None.
 Solution method      : On-the-fly selection.
 Cavity type          : Scaled VdW (van der Waals Surface) (Alpha=1.100).
 Cavity algorithm     : GePol (No added spheres)
                        Default sphere list used, NSphG=   27.
                        Lebedev-Laikov grids with approx.  5.0 points / Ang**2.
                        Smoothing algorithm: York/Karplus (Gamma=1.0000).
                        Polarization charges: spherical gaussians, with
                                              point-specific exponents (IZeta= 3).
                        Self-potential: point-specific (ISelfS= 7).
                        Self-field    : sphere-specific E.n sum rule (ISelfD= 2).
 1st derivatives      : Analytical E(r).r(x)/FMM algorithm (CHGder, D1EAlg=3).
                        Cavity 1st derivative terms included.
 Solvent              : DiPhenylEther, Eps=   3.730000 Eps(inf)=   2.492294
 ------------------------------------------------------------------------------
 GePol: Number of generator spheres                  =      27
 GePol: Total number of spheres                      =      27
 GePol: Number of exposed spheres                    =      27 (100.00%)
 GePol: Number of points                             =    2432
 GePol: Average weight of points                     =       0.12
 GePol: Minimum weight of points                     =   0.16D-07
 GePol: Maximum weight of points                     =    0.20577
 GePol: Number of points with low weight             =     163
 GePol: Fraction of low-weight points (<1% of avg)   =       6.70%
 GePol: Cavity surface area                          =    301.617 Ang**2
 GePol: Cavity volume                                =    334.593 Ang**3
 Leave Link  301 at Fri Jul  9 15:11:04 2021, MaxMem= 13421772800 cpu:               2.7 elap:               0.1
 (Enter /home/zc/g16/l302.exe)
 NPDir=0 NMtPBC=     1 NCelOv=     1 NCel=       1 NClECP=     1 NCelD=      1
         NCelK=      1 NCelE2=     1 NClLst=     1 CellRange=     0.0.
 One-electron integrals computed using PRISM.
 One-electron integral symmetry used in STVInt
   1 Symmetry operations used in ECPInt.
 ECPInt:  NShTT=   10440 NPrTT=   41342 LenC2=    9356 LenP2D=   25558.
 LDataN:  DoStor=T MaxTD1= 4 Len=   56
 NBasis=   318 RedAO= T EigKep=  1.07D-04  NBF=   318
 NBsUse=   318 1.00D-06 EigRej= -1.00D+00 NBFU=   318
 Precomputing XC quadrature grid using
 IXCGrd= 4 IRadAn=           5 IRanWt=          -1 IRanGd=           0 AccXCQ= 0.00D+00.
 Generated NRdTot=       0 NPtTot=           0 NUsed=           0 NTot=          32
 NSgBfM=   331   331   331   331   331 MxSgAt=    27 MxSgA2=    27.
 Leave Link  302 at Fri Jul  9 15:11:05 2021, MaxMem= 13421772800 cpu:              14.5 elap:               0.4
 (Enter /home/zc/g16/l303.exe)
 DipDrv:  MaxL=1.
 Leave Link  303 at Fri Jul  9 15:11:05 2021, MaxMem= 13421772800 cpu:               3.3 elap:               0.1
 (Enter /home/zc/g16/l401.exe)
 ExpMin= 1.22D-01 ExpMax= 9.18D+03 ExpMxC= 1.38D+03 IAcc=3 IRadAn=         5 AccDes= 0.00D+00
 Harris functional with IExCor= 1009 and IRadAn=       5 diagonalized for initial guess.
 HarFok:  IExCor= 1009 AccDes= 0.00D+00 IRadAn=         5 IDoV= 1 UseB2=F ITyADJ=14
 ICtDFT=  3500011 ScaDFX=  1.000000  1.000000  1.000000  1.000000
 FoFCou: FMM=F IPFlag=           0 FMFlag=      100000 FMFlg1=           0
         NFxFlg=           0 DoJE=T BraDBF=F KetDBF=T FulRan=T
         wScrn=  0.000000 ICntrl=       500 IOpCl=  0 I1Cent=   200000004 NGrid=           0
         NMat0=    1 NMatS0=      1 NMatT0=    0 NMatD0=    1 NMtDS0=    0 NMtDT0=    0
 Petite list used in FoFCou.
 Harris En= -1840.18256134159    
 JPrj=0 DoOrth=F DoCkMO=F.
 Leave Link  401 at Fri Jul  9 15:11:06 2021, MaxMem= 13421772800 cpu:              35.0 elap:               0.9
 (Enter /home/zc/g16/l502.exe)
 Integral symmetry usage will be decided dynamically.
 Closed shell SCF:
 Using DIIS extrapolation, IDIIS=  1040.
 NGot= 13421772800 LenX= 13421528743 LenY= 13421414733
 Requested convergence on RMS density matrix=1.00D-08 within 128 cycles.
 Requested convergence on MAX density matrix=1.00D-06.
 Requested convergence on             energy=1.00D-06.
 No special actions if energy rises.
 Fock matrices will be formed incrementally for  20 cycles.

 Cycle   1  Pass 1  IDiag  1:
 FoFJK:  IHMeth= 1 ICntrl=       0 DoSepK=F KAlg= 0 I1Cent=           0 FoldK=F
 IRaf= 830000000 NMat=       1 IRICut=       1 DoRegI=T DoRafI=F ISym2E= 0 IDoP0=0 IntGTp=1.
 FoFCou: FMM=F IPFlag=           0 FMFlag=      100000 FMFlg1=           0
         NFxFlg=           0 DoJE=F BraDBF=F KetDBF=F FulRan=T
         wScrn=  0.000000 ICntrl=         0 IOpCl=  0 I1Cent=           0 NGrid=           0
         NMat0=    1 NMatS0=      1 NMatT0=    0 NMatD0=    1 NMtDS0=    0 NMtDT0=    0
 Symmetry not used in FoFCou.
 Inv3:  Mode=1 IEnd=    17743872.
 Iteration    1 A*A^-1 deviation from unit magnitude is 3.11D-15 for    634.
 Iteration    1 A*A^-1 deviation from orthogonality  is 1.59D-15 for   1946    110.
 Iteration    1 A^-1*A deviation from unit magnitude is 3.33D-15 for   1996.
 Iteration    1 A^-1*A deviation from orthogonality  is 1.78D-15 for   1915   1262.
 E= -1840.05429805237    
 DIIS: error= 5.10D-02 at cycle   1 NSaved=   1.
 NSaved= 1 IEnMin= 1 EnMin= -1840.05429805237     IErMin= 1 ErrMin= 5.10D-02
 ErrMax= 5.10D-02  0.00D+00 EMaxC= 1.00D-01 BMatC= 7.74D-01 BMatP= 7.74D-01
 IDIUse=3 WtCom= 4.90D-01 WtEn= 5.10D-01
 Coeff-Com:  0.100D+01
 Coeff-En:   0.100D+01
 Coeff:      0.100D+01
 Gap=     0.082 Goal=   None    Shift=    0.000
 GapD=    0.082 DampG=0.500 DampE=0.500 DampFc=0.2500 IDamp=-1.
 Damping current iteration by 2.50D-01
 RMSDP=9.13D-03 MaxDP=3.17D-01              OVMax= 3.86D-01

 Cycle   2  Pass 1  IDiag  1:
 RMSU=  2.20D-03    CP:  9.77D-01
 E= -1840.36283795351     Delta-E=       -0.308539901130 Rises=F Damp=T
 DIIS: error= 2.87D-02 at cycle   2 NSaved=   2.
 NSaved= 2 IEnMin= 2 EnMin= -1840.36283795351     IErMin= 2 ErrMin= 2.87D-02
 ErrMax= 2.87D-02  0.00D+00 EMaxC= 1.00D-01 BMatC= 2.04D-01 BMatP= 7.74D-01
 IDIUse=3 WtCom= 7.13D-01 WtEn= 2.87D-01
 Coeff-Com: -0.899D+00 0.190D+01
 Coeff-En:   0.000D+00 0.100D+01
 Coeff:     -0.641D+00 0.164D+01
 Gap=     0.217 Goal=   None    Shift=    0.000
 RMSDP=3.94D-03 MaxDP=1.03D-01 DE=-3.09D-01 OVMax= 2.54D-01

 Cycle   3  Pass 1  IDiag  1:
 RMSU=  2.53D-03    CP:  9.24D-01  2.22D+00
 E= -1840.88649796760     Delta-E=       -0.523660014096 Rises=F Damp=F
 DIIS: error= 7.57D-03 at cycle   3 NSaved=   3.
 NSaved= 3 IEnMin= 3 EnMin= -1840.88649796760     IErMin= 3 ErrMin= 7.57D-03
 ErrMax= 7.57D-03  0.00D+00 EMaxC= 1.00D-01 BMatC= 1.81D-02 BMatP= 2.04D-01
 IDIUse=3 WtCom= 9.24D-01 WtEn= 7.57D-02
 Coeff-Com: -0.112D+00 0.387D+00 0.725D+00
 Coeff-En:   0.000D+00 0.000D+00 0.100D+01
 Coeff:     -0.104D+00 0.358D+00 0.746D+00
 Gap=     0.168 Goal=   None    Shift=    0.000
 RMSDP=8.37D-04 MaxDP=2.45D-02 DE=-5.24D-01 OVMax= 3.02D-02

 Cycle   4  Pass 1  IDiag  1:
 RMSU=  6.85D-04    CP:  9.28D-01  2.02D+00  9.22D-01
 E= -1840.90137317968     Delta-E=       -0.014875212077 Rises=F Damp=F
 DIIS: error= 4.28D-03 at cycle   4 NSaved=   4.
 NSaved= 4 IEnMin= 4 EnMin= -1840.90137317968     IErMin= 4 ErrMin= 4.28D-03
 ErrMax= 4.28D-03  0.00D+00 EMaxC= 1.00D-01 BMatC= 4.35D-03 BMatP= 1.81D-02
 IDIUse=3 WtCom= 9.57D-01 WtEn= 4.28D-02
 Coeff-Com:  0.750D-01-0.851D-01 0.377D+00 0.633D+00
 Coeff-En:   0.000D+00 0.000D+00 0.732D-01 0.927D+00
 Coeff:      0.718D-01-0.815D-01 0.364D+00 0.646D+00
 Gap=     0.168 Goal=   None    Shift=    0.000
 RMSDP=3.38D-04 MaxDP=8.25D-03 DE=-1.49D-02 OVMax= 1.48D-02

 Cycle   5  Pass 1  IDiag  1:
 RMSU=  2.19D-04    CP:  9.26D-01  2.03D+00  9.76D-01  6.85D-01
 E= -1840.90593950704     Delta-E=       -0.004566327363 Rises=F Damp=F
 DIIS: error= 7.30D-04 at cycle   5 NSaved=   5.
 NSaved= 5 IEnMin= 5 EnMin= -1840.90593950704     IErMin= 5 ErrMin= 7.30D-04
 ErrMax= 7.30D-04  0.00D+00 EMaxC= 1.00D-01 BMatC= 1.95D-04 BMatP= 4.35D-03
 IDIUse=3 WtCom= 9.93D-01 WtEn= 7.30D-03
 Coeff-Com:  0.335D-01-0.524D-01 0.721D-01 0.215D+00 0.732D+00
 Coeff-En:   0.000D+00 0.000D+00 0.000D+00 0.000D+00 0.100D+01
 Coeff:      0.333D-01-0.520D-01 0.716D-01 0.214D+00 0.734D+00
 Gap=     0.168 Goal=   None    Shift=    0.000
 RMSDP=1.00D-04 MaxDP=3.55D-03 DE=-4.57D-03 OVMax= 7.50D-03

 Cycle   6  Pass 1  IDiag  1:
 RMSU=  8.02D-05    CP:  9.26D-01  2.03D+00  9.84D-01  7.60D-01  9.30D-01
 E= -1840.90618640023     Delta-E=       -0.000246893190 Rises=F Damp=F
 DIIS: error= 4.20D-04 at cycle   6 NSaved=   6.
 NSaved= 6 IEnMin= 6 EnMin= -1840.90618640023     IErMin= 6 ErrMin= 4.20D-04
 ErrMax= 4.20D-04  0.00D+00 EMaxC= 1.00D-01 BMatC= 4.40D-05 BMatP= 1.95D-04
 IDIUse=3 WtCom= 9.96D-01 WtEn= 4.20D-03
 Coeff-Com:  0.461D-02-0.101D-01-0.237D-01-0.994D-02 0.325D+00 0.714D+00
 Coeff-En:   0.000D+00 0.000D+00 0.000D+00 0.000D+00 0.000D+00 0.100D+01
 Coeff:      0.459D-02-0.100D-01-0.236D-01-0.990D-02 0.323D+00 0.716D+00
 Gap=     0.169 Goal=   None    Shift=    0.000
 RMSDP=4.47D-05 MaxDP=1.71D-03 DE=-2.47D-04 OVMax= 3.17D-03

 Cycle   7  Pass 1  IDiag  1:
 RMSU=  3.70D-05    CP:  9.26D-01  2.02D+00  9.87D-01  7.64D-01  1.02D+00
                    CP:  9.24D-01
 E= -1840.90625667307     Delta-E=       -0.000070272842 Rises=F Damp=F
 DIIS: error= 1.70D-04 at cycle   7 NSaved=   7.
 NSaved= 7 IEnMin= 7 EnMin= -1840.90625667307     IErMin= 7 ErrMin= 1.70D-04
 ErrMax= 1.70D-04  0.00D+00 EMaxC= 1.00D-01 BMatC= 3.84D-06 BMatP= 4.40D-05
 IDIUse=3 WtCom= 9.98D-01 WtEn= 1.70D-03
 Coeff-Com: -0.201D-02 0.273D-02-0.162D-01-0.384D-01-0.394D-01 0.180D+00
 Coeff-Com:  0.913D+00
 Coeff-En:   0.000D+00 0.000D+00 0.000D+00 0.000D+00 0.000D+00 0.000D+00
 Coeff-En:   0.100D+01
 Coeff:     -0.201D-02 0.273D-02-0.161D-01-0.383D-01-0.393D-01 0.180D+00
 Coeff:      0.913D+00
 Gap=     0.169 Goal=   None    Shift=    0.000
 RMSDP=1.96D-05 MaxDP=8.58D-04 DE=-7.03D-05 OVMax= 2.73D-03

 Cycle   8  Pass 1  IDiag  1:
 RMSU=  1.01D-05    CP:  9.26D-01  2.02D+00  9.89D-01  7.67D-01  1.07D+00
                    CP:  1.07D+00  1.11D+00
 E= -1840.90626753645     Delta-E=       -0.000010863373 Rises=F Damp=F
 DIIS: error= 5.45D-05 at cycle   8 NSaved=   8.
 NSaved= 8 IEnMin= 8 EnMin= -1840.90626753645     IErMin= 8 ErrMin= 5.45D-05
 ErrMax= 5.45D-05  0.00D+00 EMaxC= 1.00D-01 BMatC= 6.53D-07 BMatP= 3.84D-06
 IDIUse=1 WtCom= 1.00D+00 WtEn= 0.00D+00
 Coeff-Com: -0.974D-03 0.177D-02-0.367D-02-0.151D-01-0.490D-01 0.784D-03
 Coeff-Com:  0.356D+00 0.710D+00
 Coeff:     -0.974D-03 0.177D-02-0.367D-02-0.151D-01-0.490D-01 0.784D-03
 Coeff:      0.356D+00 0.710D+00
 Gap=     0.169 Goal=   None    Shift=    0.000
 RMSDP=6.78D-06 MaxDP=2.89D-04 DE=-1.09D-05 OVMax= 5.95D-04

 Cycle   9  Pass 1  IDiag  1:
 RMSU=  4.33D-06    CP:  9.26D-01  2.02D+00  9.89D-01  7.69D-01  1.08D+00
                    CP:  1.09D+00  1.22D+00  1.01D+00
 E= -1840.90626877460     Delta-E=       -0.000001238158 Rises=F Damp=F
 DIIS: error= 3.25D-05 at cycle   9 NSaved=   9.
 NSaved= 9 IEnMin= 9 EnMin= -1840.90626877460     IErMin= 9 ErrMin= 3.25D-05
 ErrMax= 3.25D-05  0.00D+00 EMaxC= 1.00D-01 BMatC= 9.32D-08 BMatP= 6.53D-07
 IDIUse=1 WtCom= 1.00D+00 WtEn= 0.00D+00
 Coeff-Com:  0.161D-03-0.657D-04 0.162D-02 0.688D-03-0.117D-01-0.351D-01
 Coeff-Com: -0.452D-01 0.254D+00 0.836D+00
 Coeff:      0.161D-03-0.657D-04 0.162D-02 0.688D-03-0.117D-01-0.351D-01
 Coeff:     -0.452D-01 0.254D+00 0.836D+00
 Gap=     0.169 Goal=   None    Shift=    0.000
 RMSDP=2.85D-06 MaxDP=1.40D-04 DE=-1.24D-06 OVMax= 3.74D-04

 Cycle  10  Pass 1  IDiag  1:
 RMSU=  1.59D-06    CP:  9.26D-01  2.02D+00  9.89D-01  7.69D-01  1.08D+00
                    CP:  1.11D+00  1.26D+00  1.12D+00  9.75D-01
 E= -1840.90626898340     Delta-E=       -0.000000208798 Rises=F Damp=F
 DIIS: error= 7.01D-06 at cycle  10 NSaved=  10.
 NSaved=10 IEnMin=10 EnMin= -1840.90626898340     IErMin=10 ErrMin= 7.01D-06
 ErrMax= 7.01D-06  0.00D+00 EMaxC= 1.00D-01 BMatC= 1.20D-08 BMatP= 9.32D-08
 IDIUse=1 WtCom= 1.00D+00 WtEn= 0.00D+00
 Coeff-Com:  0.189D-03-0.227D-03 0.106D-02 0.152D-02-0.138D-03-0.140D-01
 Coeff-Com: -0.498D-01 0.285D-01 0.341D+00 0.692D+00
 Coeff:      0.189D-03-0.227D-03 0.106D-02 0.152D-02-0.138D-03-0.140D-01
 Coeff:     -0.498D-01 0.285D-01 0.341D+00 0.692D+00
 Gap=     0.169 Goal=   None    Shift=    0.000
 RMSDP=9.46D-07 MaxDP=2.59D-05 DE=-2.09D-07 OVMax= 6.45D-05

 Cycle  11  Pass 1  IDiag  1:
 RMSU=  4.84D-07    CP:  9.26D-01  2.02D+00  9.89D-01  7.69D-01  1.08D+00
                    CP:  1.11D+00  1.27D+00  1.16D+00  1.07D+00  8.43D-01
 E= -1840.90626899936     Delta-E=       -0.000000015957 Rises=F Damp=F
 DIIS: error= 2.61D-06 at cycle  11 NSaved=  11.
 NSaved=11 IEnMin=11 EnMin= -1840.90626899936     IErMin=11 ErrMin= 2.61D-06
 ErrMax= 2.61D-06  0.00D+00 EMaxC= 1.00D-01 BMatC= 1.03D-09 BMatP= 1.20D-08
 IDIUse=1 WtCom= 1.00D+00 WtEn= 0.00D+00
 Coeff-Com:  0.697D-04-0.100D-03 0.224D-03 0.393D-03 0.122D-02-0.938D-03
 Coeff-Com: -0.105D-01-0.168D-01 0.335D-01 0.246D+00 0.747D+00
 Coeff:      0.697D-04-0.100D-03 0.224D-03 0.393D-03 0.122D-02-0.938D-03
 Coeff:     -0.105D-01-0.168D-01 0.335D-01 0.246D+00 0.747D+00
 Gap=     0.169 Goal=   None    Shift=    0.000
 RMSDP=2.07D-07 MaxDP=5.54D-06 DE=-1.60D-08 OVMax= 1.24D-05

 Cycle  12  Pass 1  IDiag  1:
 RMSU=  1.57D-07    CP:  9.26D-01  2.02D+00  9.89D-01  7.69D-01  1.08D+00
                    CP:  1.11D+00  1.28D+00  1.16D+00  1.08D+00  9.08D-01
                    CP:  9.17D-01
 E= -1840.90626900069     Delta-E=       -0.000000001329 Rises=F Damp=F
 DIIS: error= 7.96D-07 at cycle  12 NSaved=  12.
 NSaved=12 IEnMin=12 EnMin= -1840.90626900069     IErMin=12 ErrMin= 7.96D-07
 ErrMax= 7.96D-07  0.00D+00 EMaxC= 1.00D-01 BMatC= 1.85D-10 BMatP= 1.03D-09
 IDIUse=1 WtCom= 1.00D+00 WtEn= 0.00D+00
 Coeff-Com:  0.641D-05-0.154D-04-0.335D-04-0.244D-04 0.633D-03 0.156D-02
 Coeff-Com:  0.195D-02-0.137D-01-0.357D-01 0.154D-01 0.341D+00 0.689D+00
 Coeff:      0.641D-05-0.154D-04-0.335D-04-0.244D-04 0.633D-03 0.156D-02
 Coeff:      0.195D-02-0.137D-01-0.357D-01 0.154D-01 0.341D+00 0.689D+00
 Gap=     0.169 Goal=   None    Shift=    0.000
 RMSDP=1.04D-07 MaxDP=2.58D-06 DE=-1.33D-09 OVMax= 7.52D-06

 Cycle  13  Pass 1  IDiag  1:
 RMSU=  5.86D-08    CP:  9.26D-01  2.02D+00  9.89D-01  7.69D-01  1.08D+00
                    CP:  1.11D+00  1.28D+00  1.16D+00  1.09D+00  9.37D-01
                    CP:  1.01D+00  8.19D-01
 E= -1840.90626900093     Delta-E=       -0.000000000247 Rises=F Damp=F
 DIIS: error= 1.81D-07 at cycle  13 NSaved=  13.
 NSaved=13 IEnMin=13 EnMin= -1840.90626900093     IErMin=13 ErrMin= 1.81D-07
 ErrMax= 1.81D-07  0.00D+00 EMaxC= 1.00D-01 BMatC= 1.10D-11 BMatP= 1.85D-10
 IDIUse=1 WtCom= 1.00D+00 WtEn= 0.00D+00
 Coeff-Com: -0.492D-05 0.481D-05-0.301D-04-0.458D-04 0.118D-03 0.652D-03
 Coeff-Com:  0.157D-02-0.363D-02-0.157D-01-0.136D-01 0.601D-01 0.241D+00
 Coeff-Com:  0.730D+00
 Coeff:     -0.492D-05 0.481D-05-0.301D-04-0.458D-04 0.118D-03 0.652D-03
 Coeff:      0.157D-02-0.363D-02-0.157D-01-0.136D-01 0.601D-01 0.241D+00
 Coeff:      0.730D+00
 Gap=     0.169 Goal=   None    Shift=    0.000
 RMSDP=2.92D-08 MaxDP=1.04D-06 DE=-2.47D-10 OVMax= 1.89D-06

 Cycle  14  Pass 1  IDiag  1:
 RMSU=  2.25D-08    CP:  9.26D-01  2.02D+00  9.89D-01  7.69D-01  1.08D+00
                    CP:  1.11D+00  1.28D+00  1.16D+00  1.09D+00  9.42D-01
                    CP:  1.03D+00  8.80D-01  9.34D-01
 E= -1840.90626900095     Delta-E=       -0.000000000015 Rises=F Damp=F
 DIIS: error= 1.59D-07 at cycle  14 NSaved=  14.
 NSaved=14 IEnMin=14 EnMin= -1840.90626900095     IErMin=14 ErrMin= 1.59D-07
 ErrMax= 1.59D-07  0.00D+00 EMaxC= 1.00D-01 BMatC= 4.35D-12 BMatP= 1.10D-11
 IDIUse=1 WtCom= 1.00D+00 WtEn= 0.00D+00
 Coeff-Com: -0.439D-05 0.585D-05-0.130D-04-0.245D-04-0.239D-04 0.168D-03
 Coeff-Com:  0.657D-03-0.128D-03-0.417D-02-0.966D-02-0.135D-01 0.402D-01
 Coeff-Com:  0.417D+00 0.569D+00
 Coeff:     -0.439D-05 0.585D-05-0.130D-04-0.245D-04-0.239D-04 0.168D-03
 Coeff:      0.657D-03-0.128D-03-0.417D-02-0.966D-02-0.135D-01 0.402D-01
 Coeff:      0.417D+00 0.569D+00
 Gap=     0.169 Goal=   None    Shift=    0.000
 RMSDP=1.30D-08 MaxDP=4.76D-07 DE=-1.48D-11 OVMax= 8.83D-07

 Cycle  15  Pass 1  IDiag  1:
 RMSU=  9.09D-09    CP:  9.26D-01  2.02D+00  9.89D-01  7.69D-01  1.08D+00
                    CP:  1.11D+00  1.28D+00  1.16D+00  1.09D+00  9.43D-01
                    CP:  1.04D+00  8.92D-01  1.02D+00  6.98D-01
 E= -1840.90626900096     Delta-E=       -0.000000000012 Rises=F Damp=F
 DIIS: error= 5.16D-08 at cycle  15 NSaved=  15.
 NSaved=15 IEnMin=15 EnMin= -1840.90626900096     IErMin=15 ErrMin= 5.16D-08
 ErrMax= 5.16D-08  0.00D+00 EMaxC= 1.00D-01 BMatC= 5.75D-13 BMatP= 4.35D-12
 IDIUse=1 WtCom= 1.00D+00 WtEn= 0.00D+00
 Coeff-Com: -0.181D-05 0.280D-05-0.144D-05-0.493D-05-0.388D-04-0.339D-04
 Coeff-Com:  0.606D-04 0.672D-03 0.734D-03-0.250D-02-0.195D-01-0.271D-01
 Coeff-Com:  0.676D-01 0.294D+00 0.686D+00
 Coeff:     -0.181D-05 0.280D-05-0.144D-05-0.493D-05-0.388D-04-0.339D-04
 Coeff:      0.606D-04 0.672D-03 0.734D-03-0.250D-02-0.195D-01-0.271D-01
 Coeff:      0.676D-01 0.294D+00 0.686D+00
 Gap=     0.169 Goal=   None    Shift=    0.000
 RMSDP=5.34D-09 MaxDP=1.81D-07 DE=-1.21D-11 OVMax= 3.81D-07

 Error on total polarization charges =  0.01002
 SCF Done:  E(RM062X) =  -1840.90626900     A.U. after   15 cycles
            NFock= 15  Conv=0.53D-08     -V/T= 2.0017
 KE= 1.837789986898D+03 PE=-7.819036365979D+03 EE= 2.401798582613D+03
 Leave Link  502 at Fri Jul  9 15:11:42 2021, MaxMem= 13421772800 cpu:            1403.1 elap:              35.9
 (Enter /home/zc/g16/l601.exe)
 Copying SCF densities to generalized density rwf, IOpCl= 0 IROHF=0.

 **********************************************************************

            Population analysis using the SCF density.

 **********************************************************************

 Orbital symmetries:
       Occupied  (A) (A) (A) (A) (A) (A) (A) (A) (A) (A) (A) (A)
                 (A) (A) (A) (A) (A) (A) (A) (A) (A) (A) (A) (A)
                 (A) (A) (A) (A) (A) (A) (A) (A) (A) (A) (A) (A)
                 (A) (A) (A) (A) (A) (A) (A) (A) (A) (A) (A) (A)
                 (A) (A) (A) (A) (A) (A) (A) (A) (A) (A) (A) (A)
                 (A) (A) (A) (A) (A) (A) (A) (A) (A) (A) (A) (A)
                 (A) (A) (A) (A) (A)
       Virtual   (A) (A) (A) (A) (A) (A) (A) (A) (A) (A) (A) (A)
                 (A) (A) (A) (A) (A) (A) (A) (A) (A) (A) (A) (A)
                 (A) (A) (A) (A) (A) (A) (A) (A) (A) (A) (A) (A)
                 (A) (A) (A) (A) (A) (A) (A) (A) (A) (A) (A) (A)
                 (A) (A) (A) (A) (A) (A) (A) (A) (A) (A) (A) (A)
                 (A) (A) (A) (A) (A) (A) (A) (A) (A) (A) (A) (A)
                 (A) (A) (A) (A) (A) (A) (A) (A) (A) (A) (A) (A)
                 (A) (A) (A) (A) (A) (A) (A) (A) (A) (A) (A) (A)
                 (A) (A) (A) (A) (A) (A) (A) (A) (A) (A) (A) (A)
                 (A) (A) (A) (A) (A) (A) (A) (A) (A) (A) (A) (A)
                 (A) (A) (A) (A) (A) (A) (A) (A) (A) (A) (A) (A)
                 (A) (A) (A) (A) (A) (A) (A) (A) (A) (A) (A) (A)
                 (A) (A) (A) (A) (A) (A) (A) (A) (A) (A) (A) (A)
                 (A) (A) (A) (A) (A) (A) (A) (A) (A) (A) (A) (A)
                 (A) (A) (A) (A) (A) (A) (A) (A) (A) (A) (A) (A)
                 (A) (A) (A) (A) (A) (A) (A) (A) (A) (A) (A) (A)
                 (A) (A) (A) (A) (A) (A) (A) (A) (A) (A) (A) (A)
                 (A) (A) (A) (A) (A) (A) (A) (A) (A) (A) (A) (A)
                 (A) (A) (A) (A) (A) (A) (A) (A) (A) (A) (A) (A)
                 (A) (A) (A) (A) (A) (A) (A) (A) (A) (A) (A) (A)
                 (A)
 The electronic state is 1-A.
 Alpha  occ. eigenvalues --  -89.99323 -89.91108 -89.91106 -14.78291 -14.78286
 Alpha  occ. eigenvalues --  -10.58830 -10.58746 -10.56423 -10.56414 -10.55819
 Alpha  occ. eigenvalues --  -10.55732 -10.54908 -10.54902 -10.54868 -10.54867
 Alpha  occ. eigenvalues --  -10.53613 -10.53611 -10.53425 -10.53423  -8.35381
 Alpha  occ. eigenvalues --   -8.29195  -8.29195  -6.27647  -6.27298  -6.27050
 Alpha  occ. eigenvalues --   -6.21430  -6.21430  -6.21136  -6.21135  -6.20960
 Alpha  occ. eigenvalues --   -6.20959  -1.13621  -1.08154  -1.08111  -0.99537
 Alpha  occ. eigenvalues --   -0.99331  -0.90941  -0.87421  -0.86009  -0.84865
 Alpha  occ. eigenvalues --   -0.84595  -0.80014  -0.75458  -0.71911  -0.70515
 Alpha  occ. eigenvalues --   -0.67024  -0.64323  -0.63367  -0.61546  -0.60844
 Alpha  occ. eigenvalues --   -0.60454  -0.56965  -0.56648  -0.55764  -0.53521
 Alpha  occ. eigenvalues --   -0.52450  -0.51423  -0.50681  -0.48382  -0.46964
 Alpha  occ. eigenvalues --   -0.46683  -0.44894  -0.44718  -0.44295  -0.43964
 Alpha  occ. eigenvalues --   -0.43830  -0.42119  -0.39757  -0.38436  -0.37354
 Alpha  occ. eigenvalues --   -0.34623  -0.33451  -0.33289  -0.31465  -0.31260
 Alpha  occ. eigenvalues --   -0.31183  -0.23951
 Alpha virt. eigenvalues --   -0.07057   0.01778   0.01879   0.04206   0.08491
 Alpha virt. eigenvalues --    0.09721   0.11167   0.11189   0.11956   0.11966
 Alpha virt. eigenvalues --    0.13995   0.14944   0.15630   0.16285   0.16378
 Alpha virt. eigenvalues --    0.16664   0.19623   0.20308   0.21017   0.22771
 Alpha virt. eigenvalues --    0.23330   0.24337   0.24453   0.26847   0.26856
 Alpha virt. eigenvalues --    0.31730   0.31837   0.34988   0.35275   0.37056
 Alpha virt. eigenvalues --    0.37088   0.37182   0.37823   0.37962   0.39639
 Alpha virt. eigenvalues --    0.41626   0.42379   0.42952   0.43800   0.45707
 Alpha virt. eigenvalues --    0.45949   0.46576   0.47783   0.47837   0.49806
 Alpha virt. eigenvalues --    0.49872   0.50949   0.51113   0.51389   0.52723
 Alpha virt. eigenvalues --    0.53527   0.54128   0.54419   0.54506   0.54926
 Alpha virt. eigenvalues --    0.56020   0.57390   0.58031   0.59427   0.59852
 Alpha virt. eigenvalues --    0.60471   0.60863   0.62126   0.62350   0.64489
 Alpha virt. eigenvalues --    0.65576   0.65994   0.66817   0.68159   0.68521
 Alpha virt. eigenvalues --    0.69280   0.69284   0.69572   0.70760   0.71366
 Alpha virt. eigenvalues --    0.71368   0.71490   0.73051   0.73145   0.74503
 Alpha virt. eigenvalues --    0.75232   0.75806   0.76410   0.76499   0.77799
 Alpha virt. eigenvalues --    0.77916   0.80277   0.80794   0.81966   0.83275
 Alpha virt. eigenvalues --    0.84157   0.85107   0.85329   0.87107   0.87300
 Alpha virt. eigenvalues --    0.88527   0.89812   0.91363   0.91699   0.93170
 Alpha virt. eigenvalues --    0.93572   0.96338   0.96466   0.96562   0.98462
 Alpha virt. eigenvalues --    0.98796   1.00030   1.02067   1.02178   1.05088
 Alpha virt. eigenvalues --    1.05089   1.08569   1.08691   1.12682   1.14513
 Alpha virt. eigenvalues --    1.15218   1.16886   1.17793   1.19613   1.19976
 Alpha virt. eigenvalues --    1.23825   1.24332   1.24506   1.24640   1.27341
 Alpha virt. eigenvalues --    1.27631   1.27779   1.28585   1.29613   1.29959
 Alpha virt. eigenvalues --    1.30529   1.33757   1.34696   1.35354   1.36707
 Alpha virt. eigenvalues --    1.36747   1.36896   1.37890   1.38602   1.40768
 Alpha virt. eigenvalues --    1.44676   1.45576   1.47751   1.48998   1.50932
 Alpha virt. eigenvalues --    1.51052   1.56611   1.60716   1.61788   1.65945
 Alpha virt. eigenvalues --    1.66189   1.71519   1.72752   1.75703   1.76574
 Alpha virt. eigenvalues --    1.77774   1.78505   1.79515   1.81544   1.84421
 Alpha virt. eigenvalues --    1.85100   1.87328   1.87800   1.88270   1.88543
 Alpha virt. eigenvalues --    1.91218   1.92502   1.92560   1.93496   1.95118
 Alpha virt. eigenvalues --    1.98283   1.99297   2.00265   2.00743   2.03312
 Alpha virt. eigenvalues --    2.04833   2.06346   2.07534   2.10494   2.10547
 Alpha virt. eigenvalues --    2.11589   2.12396   2.14047   2.14872   2.15459
 Alpha virt. eigenvalues --    2.15471   2.18933   2.20590   2.21004   2.24276
 Alpha virt. eigenvalues --    2.24672   2.25191   2.26122   2.30672   2.33020
 Alpha virt. eigenvalues --    2.34413   2.36258   2.37972   2.39597   2.44004
 Alpha virt. eigenvalues --    2.44301   2.48170   2.49953   2.50599   2.52809
 Alpha virt. eigenvalues --    2.54474   2.55345   2.55876   2.58561   2.59088
 Alpha virt. eigenvalues --    2.61692   2.63868   2.63916   2.66308   2.68194
 Alpha virt. eigenvalues --    2.70347   2.71820   2.73044   2.74112   2.75359
 Alpha virt. eigenvalues --    2.77588   2.77621   2.79216   2.79285   2.81445
 Alpha virt. eigenvalues --    2.91936   2.93721   2.98664   3.00930   3.06150
 Alpha virt. eigenvalues --    3.06360   3.12565   3.13805   3.20527   3.25951
 Alpha virt. eigenvalues --    3.30602   3.33269   3.47352   3.57068   3.63704
 Alpha virt. eigenvalues --    3.80263
          Condensed to atoms (all electrons):
               1          2          3          4          5          6
     1  C    5.781973   0.185645   0.131582  -0.165476   0.095726  -0.028734
     2  C    0.185645   5.505971   0.244672   0.131556  -0.261810   0.126590
     3  C    0.131582   0.244672   5.506282   0.185517   0.126595  -0.261825
     4  C   -0.165476   0.131556   0.185517   5.782223  -0.028805   0.095602
     5  C    0.095726  -0.261810   0.126595  -0.028805   6.008004  -0.134488
     6  C   -0.028734   0.126590  -0.261825   0.095602  -0.134488   6.007990
     7  N    0.032587  -0.002430   0.013714  -0.119422   0.606114  -0.142654
     8  S    0.014387  -0.000106  -0.000107   0.014401  -0.134591  -0.134612
     9  N   -0.119402   0.013711  -0.002430   0.032600  -0.142650   0.606036
    10  C    0.088942  -0.217149   0.030547  -0.009615   0.058640  -0.142112
    11  C   -0.009612   0.030545  -0.217221   0.088976  -0.142093   0.058631
    12  C   -0.073851   0.027354  -0.000934  -0.000037   0.000348  -0.063396
    13  C    0.028376  -0.001754   0.000052  -0.000004   0.000048   0.001496
    14  C    0.010884   0.003119   0.000013   0.000005   0.000008  -0.000545
    15  S   -0.111612  -0.054344  -0.003053  -0.000129  -0.000364   0.016671
    16  S   -0.000129  -0.003056  -0.054405  -0.111626   0.016679  -0.000365
    17  C    0.000005   0.000013   0.003121   0.010883  -0.000544   0.000008
    18  C   -0.000004   0.000051  -0.001753   0.028382   0.001494   0.000048
    19  C   -0.000037  -0.000932   0.027349  -0.073910  -0.063383   0.000346
    20  H   -0.101487   0.466000  -0.039899   0.023856  -0.001061   0.016252
    21  H    0.023848  -0.039894   0.465985  -0.101476   0.016255  -0.001059
    22  H   -0.033228  -0.000980   0.000032  -0.000144   0.001688   0.008538
    23  H   -0.000738   0.000002   0.000000  -0.000000  -0.000000   0.000027
    24  H   -0.000316  -0.000011  -0.000001   0.000000  -0.000000   0.000016
    25  H    0.000000  -0.000001  -0.000011  -0.000316   0.000016  -0.000000
    26  H   -0.000000   0.000000   0.000002  -0.000738   0.000027  -0.000000
    27  H   -0.000144   0.000032  -0.000980  -0.033214   0.008533   0.001685
               7          8          9         10         11         12
     1  C    0.032587   0.014387  -0.119402   0.088942  -0.009612  -0.073851
     2  C   -0.002430  -0.000106   0.013711  -0.217149   0.030545   0.027354
     3  C    0.013714  -0.000107  -0.002430   0.030547  -0.217221  -0.000934
     4  C   -0.119422   0.014401   0.032600  -0.009615   0.088976  -0.000037
     5  C    0.606114  -0.134591  -0.142650   0.058640  -0.142093   0.000348
     6  C   -0.142654  -0.134612   0.606036  -0.142112   0.058631  -0.063396
     7  N    6.798072   0.302723  -0.141508  -0.000108  -0.026817   0.000102
     8  S    0.302723  15.127551   0.302754  -0.001458  -0.001458   0.000593
     9  N   -0.141508   0.302754   6.798146  -0.026821  -0.000108  -0.014801
    10  C   -0.000108  -0.001458  -0.026821   5.880276   0.000113   0.300397
    11  C   -0.026817  -0.001458  -0.000108   0.000113   5.880169  -0.000004
    12  C    0.000102   0.000593  -0.014801   0.300397  -0.000004   5.300994
    13  C    0.000000   0.000003   0.000510   0.045253   0.000000   0.306806
    14  C    0.000000  -0.000000  -0.000068  -0.202059  -0.000000   0.042927
    15  S    0.000001   0.000008   0.000275   0.386227  -0.000002  -0.190149
    16  S    0.000275   0.000008   0.000001  -0.000002   0.386297  -0.000000
    17  C   -0.000068  -0.000000   0.000000  -0.000000  -0.202069   0.000000
    18  C    0.000510   0.000003   0.000000   0.000000   0.045258   0.000000
    19  C   -0.014776   0.000592   0.000102  -0.000004   0.300405  -0.000000
    20  H    0.000021   0.000007  -0.000132  -0.040310  -0.000780   0.000851
    21  H   -0.000132   0.000007   0.000021  -0.000780  -0.040325   0.000004
    22  H    0.000181  -0.000664   0.017605  -0.059166  -0.000000   0.473068
    23  H   -0.000000   0.000000  -0.000019   0.016590  -0.000000  -0.070223
    24  H    0.000000  -0.000000   0.000001   0.007915   0.000000   0.012869
    25  H    0.000001  -0.000000   0.000000   0.000000   0.007916  -0.000000
    26  H   -0.000019   0.000000  -0.000000  -0.000000   0.016584   0.000000
    27  H    0.017596  -0.000664   0.000181  -0.000000  -0.059184  -0.000000
              13         14         15         16         17         18
     1  C    0.028376   0.010884  -0.111612  -0.000129   0.000005  -0.000004
     2  C   -0.001754   0.003119  -0.054344  -0.003056   0.000013   0.000051
     3  C    0.000052   0.000013  -0.003053  -0.054405   0.003121  -0.001753
     4  C   -0.000004   0.000005  -0.000129  -0.111626   0.010883   0.028382
     5  C    0.000048   0.000008  -0.000364   0.016679  -0.000544   0.001494
     6  C    0.001496  -0.000545   0.016671  -0.000365   0.000008   0.000048
     7  N    0.000000   0.000000   0.000001   0.000275  -0.000068   0.000510
     8  S    0.000003  -0.000000   0.000008   0.000008  -0.000000   0.000003
     9  N    0.000510  -0.000068   0.000275   0.000001   0.000000   0.000000
    10  C    0.045253  -0.202059   0.386227  -0.000002  -0.000000   0.000000
    11  C    0.000000  -0.000000  -0.000002   0.386297  -0.202069   0.045258
    12  C    0.306806   0.042927  -0.190149  -0.000000   0.000000   0.000000
    13  C    5.021059   0.344241  -0.057992   0.000000  -0.000000  -0.000000
    14  C    0.344241   5.171863   0.346346  -0.000000   0.000000  -0.000000
    15  S   -0.057992   0.346346  15.548722  -0.000000  -0.000000   0.000000
    16  S    0.000000  -0.000000  -0.000000  15.548660   0.346417  -0.058014
    17  C   -0.000000   0.000000  -0.000000   0.346417   5.171849   0.344249
    18  C   -0.000000  -0.000000   0.000000  -0.058014   0.344249   5.021160
    19  C    0.000000   0.000000  -0.000000  -0.190136   0.042909   0.306814
    20  H   -0.000079   0.000715   0.006200   0.000115  -0.000003   0.000000
    21  H    0.000000  -0.000003   0.000115   0.006206   0.000715  -0.000079
    22  H   -0.077285   0.016861   0.011514  -0.000000  -0.000000   0.000000
    23  H    0.469124  -0.083993   0.012131   0.000000   0.000000  -0.000000
    24  H   -0.034710   0.434830  -0.068141  -0.000000  -0.000000   0.000000
    25  H    0.000000  -0.000000  -0.000000  -0.068145   0.434832  -0.034715
    26  H   -0.000000   0.000000   0.000000   0.012130  -0.083974   0.469087
    27  H    0.000000  -0.000000  -0.000000   0.011516   0.016862  -0.077298
              19         20         21         22         23         24
     1  C   -0.000037  -0.101487   0.023848  -0.033228  -0.000738  -0.000316
     2  C   -0.000932   0.466000  -0.039894  -0.000980   0.000002  -0.000011
     3  C    0.027349  -0.039899   0.465985   0.000032   0.000000  -0.000001
     4  C   -0.073910   0.023856  -0.101476  -0.000144  -0.000000   0.000000
     5  C   -0.063383  -0.001061   0.016255   0.001688  -0.000000  -0.000000
     6  C    0.000346   0.016252  -0.001059   0.008538   0.000027   0.000016
     7  N   -0.014776   0.000021  -0.000132   0.000181  -0.000000   0.000000
     8  S    0.000592   0.000007   0.000007  -0.000664   0.000000  -0.000000
     9  N    0.000102  -0.000132   0.000021   0.017605  -0.000019   0.000001
    10  C   -0.000004  -0.040310  -0.000780  -0.059166   0.016590   0.007915
    11  C    0.300405  -0.000780  -0.040325  -0.000000  -0.000000   0.000000
    12  C   -0.000000   0.000851   0.000004   0.473068  -0.070223   0.012869
    13  C    0.000000  -0.000079   0.000000  -0.077285   0.469124  -0.034710
    14  C    0.000000   0.000715  -0.000003   0.016861  -0.083993   0.434830
    15  S   -0.000000   0.006200   0.000115   0.011514   0.012131  -0.068141
    16  S   -0.190136   0.000115   0.006206  -0.000000   0.000000  -0.000000
    17  C    0.042909  -0.000003   0.000715  -0.000000   0.000000  -0.000000
    18  C    0.306814   0.000000  -0.000079   0.000000  -0.000000   0.000000
    19  C    5.300930   0.000004   0.000849  -0.000000   0.000000  -0.000000
    20  H    0.000004   0.658592  -0.019813  -0.000040  -0.000001  -0.000017
    21  H    0.000849  -0.019813   0.658581   0.000000   0.000000   0.000000
    22  H   -0.000000  -0.000040   0.000000   0.629590  -0.007804  -0.000323
    23  H    0.000000  -0.000001   0.000000  -0.007804   0.649655  -0.008114
    24  H   -0.000000  -0.000017   0.000000  -0.000323  -0.008114   0.589147
    25  H    0.012867   0.000000  -0.000017  -0.000000   0.000000  -0.000000
    26  H   -0.070208   0.000000  -0.000001   0.000000  -0.000000   0.000000
    27  H    0.473093   0.000000  -0.000040  -0.000000   0.000000  -0.000000
              25         26         27
     1  C    0.000000  -0.000000  -0.000144
     2  C   -0.000001   0.000000   0.000032
     3  C   -0.000011   0.000002  -0.000980
     4  C   -0.000316  -0.000738  -0.033214
     5  C    0.000016   0.000027   0.008533
     6  C   -0.000000  -0.000000   0.001685
     7  N    0.000001  -0.000019   0.017596
     8  S   -0.000000   0.000000  -0.000664
     9  N    0.000000  -0.000000   0.000181
    10  C    0.000000  -0.000000  -0.000000
    11  C    0.007916   0.016584  -0.059184
    12  C   -0.000000   0.000000  -0.000000
    13  C    0.000000  -0.000000   0.000000
    14  C   -0.000000   0.000000  -0.000000
    15  S   -0.000000   0.000000  -0.000000
    16  S   -0.068145   0.012130   0.011516
    17  C    0.434832  -0.083974   0.016862
    18  C   -0.034715   0.469087  -0.077298
    19  C    0.012867  -0.070208   0.473093
    20  H    0.000000   0.000000   0.000000
    21  H   -0.000017  -0.000001  -0.000040
    22  H   -0.000000   0.000000  -0.000000
    23  H    0.000000  -0.000000   0.000000
    24  H   -0.000000   0.000000  -0.000000
    25  H    0.589126  -0.008111  -0.000323
    26  H   -0.008111   0.649607  -0.007803
    27  H   -0.000323  -0.007803   0.629621
 Mulliken charges:
               1
     1  C    0.250816
     2  C   -0.152793
     3  C   -0.152844
     4  C    0.250908
     5  C   -0.030385
     6  C   -0.030145
     7  N   -0.323962
     8  S    0.510622
     9  N   -0.324003
    10  C   -0.115313
    11  C   -0.115220
    12  C   -0.052918
    13  C   -0.045142
    14  C   -0.085146
    15  S    0.157575
    16  S    0.157572
    17  C   -0.085207
    18  C   -0.045192
    19  C   -0.052873
    20  H    0.031011
    21  H    0.031034
    22  H    0.020558
    23  H    0.023364
    24  H    0.066854
    25  H    0.066882
    26  H    0.023418
    27  H    0.020529
 Sum of Mulliken charges =  -0.00000
 Mulliken charges with hydrogens summed into heavy atoms:
               1
     1  C    0.250816
     2  C   -0.121783
     3  C   -0.121810
     4  C    0.250908
     5  C   -0.030385
     6  C   -0.030145
     7  N   -0.323962
     8  S    0.510622
     9  N   -0.324003
    10  C   -0.115313
    11  C   -0.115220
    12  C   -0.032360
    13  C   -0.021778
    14  C   -0.018292
    15  S    0.157575
    16  S    0.157572
    17  C   -0.018325
    18  C   -0.021774
    19  C   -0.032344
 Electronic spatial extent (au):  <R**2>=           6858.4244
 Charge=             -0.0000 electrons
 Dipole moment (field-independent basis, Debye):
    X=             -0.0004    Y=             -0.9606    Z=              0.0019  Tot=              0.9606
 Quadrupole moment (field-independent basis, Debye-Ang):
   XX=           -111.5703   YY=           -114.7158   ZZ=           -131.9276
   XY=              0.0012   XZ=             -0.0005   YZ=              0.0063
 Traceless Quadrupole moment (field-independent basis, Debye-Ang):
   XX=              7.8342   YY=              4.6888   ZZ=            -12.5230
   XY=              0.0012   XZ=             -0.0005   YZ=              0.0063
 Octapole moment (field-independent basis, Debye-Ang**2):
  XXX=              0.0081  YYY=             26.9349  ZZZ=             -0.0156  XYY=             -0.0089
  XXY=            -33.2619  XXZ=              0.1071  XZZ=             -0.0013  YZZ=              2.5353
  YYZ=              0.0019  XYZ=              0.0142
 Hexadecapole moment (field-independent basis, Debye-Ang**3):
 XXXX=          -6271.9472 YYYY=          -1788.7731 ZZZZ=           -144.2984 XXXY=              0.0232
 XXXZ=             -0.0389 YYYX=              0.0163 YYYZ=              0.0009 ZZZX=             -0.0188
 ZZZY=             -0.0123 XXYY=          -1413.6500 XXZZ=          -1329.0161 YYZZ=           -361.1068
 XXYZ=              0.0776 YYXZ=             -0.0000 ZZXY=              0.0011
 N-N= 1.738541527467D+03 E-N=-7.819036371423D+03  KE= 1.837789986898D+03
 No NMR shielding tensors so no spin-rotation constants.
 Leave Link  601 at Fri Jul  9 15:11:42 2021, MaxMem= 13421772800 cpu:               7.3 elap:               0.2
 (Enter /home/zc/g16/l701.exe)
 ... and contract with generalized density number  0.
 Compute integral first derivatives.
 R6Disp: Adding Grimme-D3 dispersion energy 1st derivatives to the gradient.
   1 Symmetry operations used in ECPInt.
 ECPInt:  NShTT=   10440 NPrTT=   41342 LenC2=    9356 LenP2D=   25558.
 LDataN:  DoStor=T MaxTD1= 5 Len=  102
 D1PCM: PCM CHGder 1st derivatives, ID1Alg=3 FixD1E=F DoIter=F DoCFld=F I1PDM=0.
 GePol: Maximum number of non-zero 1st derivatives   =     287
 Leave Link  701 at Fri Jul  9 15:11:44 2021, MaxMem= 13421772800 cpu:              51.3 elap:               1.3
 (Enter /home/zc/g16/l702.exe)
 L702 exits ... SP integral derivatives will be done elsewhere.
 Leave Link  702 at Fri Jul  9 15:11:44 2021, MaxMem= 13421772800 cpu:               1.4 elap:               0.1
 (Enter /home/zc/g16/l703.exe)
 Integral derivatives from FoFJK, PRISM(SPDF).
 Compute integral first derivatives, UseDBF=F ICtDFT=           0.
 Calling FoFJK, ICntrl=      2127 FMM=F ISym2X=0 I1Cent= 0 IOpClX= 0 NMat=1 NMatS=1 NMatT=0.
 FoFJK:  IHMeth= 1 ICntrl=    2127 DoSepK=F KAlg= 0 I1Cent=           0 FoldK=F
 IRaf=         0 NMat=       1 IRICut=       1 DoRegI=T DoRafI=F ISym2E= 0 IDoP0=0 IntGTp=1.
 FoFCou: FMM=F IPFlag=           0 FMFlag=      100000 FMFlg1=         800
         NFxFlg=           0 DoJE=F BraDBF=F KetDBF=F FulRan=T
         wScrn=  0.000000 ICntrl=      2127 IOpCl=  0 I1Cent=           0 NGrid=           0
         NMat0=    1 NMatS0=      1 NMatT0=    0 NMatD0=    1 NMtDS0=    0 NMtDT0=    0
 Symmetry not used in FoFCou.
 Leave Link  703 at Fri Jul  9 15:11:48 2021, MaxMem= 13421772800 cpu:             169.5 elap:               4.3
 (Enter /home/zc/g16/l716.exe)
 Dipole        =-1.59905186D-04-3.77912141D-01 7.50067334D-04
 ***** Axes restored to original set *****
 -------------------------------------------------------------------
 Center     Atomic                   Forces (Hartrees/Bohr)
 Number     Number              X              Y              Z
 -------------------------------------------------------------------
      1        6           0.038602290   -0.042413152    0.021239520
      2        6          -0.044534801   -0.051451384    0.002302873
      3        6           0.057472741   -0.028956810    0.022465840
      4        6          -0.022806554   -0.055838518    0.009079709
      5        6           0.020437830    0.037760633   -0.004821798
      6        6          -0.030717475    0.026540179   -0.014964041
      7        7           0.033890397    0.108103967   -0.020061961
      8       16           0.015077957   -0.093457338    0.028730702
      9        7          -0.065256718    0.086068007   -0.039644959
     10        6           0.031603748    0.162013320   -0.035098857
     11        6          -0.080022512    0.137449660   -0.057091182
     12        6          -0.006673871    0.102734480   -0.029164179
     13        6          -0.073884633    0.030067964   -0.027077671
     14        6          -0.243354435   -0.043447807   -0.051108747
     15       16           0.161511316   -0.272437042    0.114390658
     16       16          -0.065493558   -0.323128672    0.069402074
     17        6           0.240256050    0.063944134    0.044411077
     18        6           0.059514316    0.059757461   -0.000712513
     19        6          -0.025793253    0.098451629   -0.032851249
     20        1          -0.004236223    0.008699028   -0.003418668
     21        1           0.001224425    0.009938626   -0.002334359
     22        1           0.011310172   -0.005927169    0.004508828
     23        1           0.006653301   -0.002512637    0.002389854
     24        1           0.006605171    0.003331399    0.000811804
     25        1          -0.007215675    0.000298494   -0.001921990
     26        1          -0.005466664   -0.005237481    0.000000718
     27        1          -0.008703341   -0.010350971    0.000538518
 -------------------------------------------------------------------
 Cartesian Forces:  Max     0.323128672 RMS     0.079044747
 Leave Link  716 at Fri Jul  9 15:11:48 2021, MaxMem= 13421772800 cpu:               1.2 elap:               0.1
 (Enter /home/zc/g16/l103.exe)

 GradGradGradGradGradGradGradGradGradGradGradGradGradGradGradGradGradGrad
 Berny optimization.
 FormGI is forming the generalized inverse of G from B-inverse, IUseBI=4.
 Internal  Forces:  Max     0.243654947 RMS     0.051059479
 Search for a local minimum.
 Step number   1 out of a maximum of  157
 All quantities printed in internal units (Hartrees-Bohrs-Radians)
 RMS Force = .51059D-01 SwitMx=.10000D-02 MixMth= 1
 Mixed Optimization -- RFO/linear search
 Second derivative matrix not updated -- first step.
 ITU=  0
     Eigenvalues ---    0.02333   0.02613   0.02613   0.02685   0.02699
     Eigenvalues ---    0.02730   0.02768   0.02785   0.02796   0.02816
     Eigenvalues ---    0.02837   0.02837   0.02870   0.02941   0.02949
     Eigenvalues ---    0.02949   0.02952   0.02952   0.03076   0.03076
     Eigenvalues ---    0.03598   0.03598   0.04065   0.04066   0.16000
     Eigenvalues ---    0.16000   0.16000   0.16000   0.16000   0.16000
     Eigenvalues ---    0.16000   0.16000   0.22164   0.22164   0.22455
     Eigenvalues ---    0.23913   0.23914   0.24508   0.25000   0.25000
     Eigenvalues ---    0.25000   0.25000   0.25000   0.25000   0.25000
     Eigenvalues ---    0.33269   0.33274   0.33828   0.33840   0.33879
     Eigenvalues ---    0.33886   0.34242   0.34247   0.35098   0.35192
     Eigenvalues ---    0.45844   0.49699   0.50290   0.50297   0.52866
     Eigenvalues ---    0.52867   0.53119   0.53868   0.53870   0.54711
     Eigenvalues ---    0.54733   0.56146   0.57501   0.57502   0.71352
     Eigenvalues ---    0.76223   0.78958   0.79005   0.86709   0.86734
 RFO step:  Lambda=-3.59697867D-01 EMin= 2.33256601D-02
 Linear search not attempted -- first point.
 Maximum step size (   0.300) exceeded in Quadratic search.
    -- Step size scaled by   0.508
 Iteration  1 RMS(Cart)=  0.06189834 RMS(Int)=  0.00029393
 Iteration  2 RMS(Cart)=  0.00032306 RMS(Int)=  0.00011413
 Iteration  3 RMS(Cart)=  0.00000008 RMS(Int)=  0.00011413
 ITry= 1 IFail=0 DXMaxC= 2.51D-01 DCOld= 1.00D+10 DXMaxT= 3.00D-01 DXLimC= 3.00D+00 Rises=F
 Variable       Old X    -DE/DX   Delta X   Delta X   Delta X     New X
                                 (Linear)    (Quad)   (Total)
    R1        2.55179   0.04607   0.00000   0.02489   0.02487   2.57666
    R2        2.55601   0.09785   0.00000   0.05574   0.05576   2.61176
    R3        2.57079   0.11126   0.00000   0.06357   0.06357   2.63436
    R4        2.53555   0.09008   0.00000   0.04782   0.04779   2.58334
    R5        2.08573  -0.00785   0.00000  -0.00575  -0.00575   2.07998
    R6        2.55159   0.04618   0.00000   0.02494   0.02493   2.57652
    R7        2.08582  -0.00787   0.00000  -0.00577  -0.00577   2.08005
    R8        2.55620   0.09774   0.00000   0.05569   0.05571   2.61191
    R9        2.57078   0.11128   0.00000   0.06358   0.06358   2.63436
   R10        2.56789   0.11227   0.00000   0.06855   0.06830   2.63619
   R11        2.39420   0.06481   0.00000   0.02999   0.02989   2.42409
   R12        2.39425   0.06479   0.00000   0.02999   0.02988   2.42413
   R13        3.20886  -0.02801   0.00000  -0.02236  -0.02217   3.18669
   R14        3.20889  -0.02803   0.00000  -0.02238  -0.02218   3.18670
   R15        2.54751   0.08416   0.00000   0.04369   0.04361   2.59111
   R16        2.79937   0.23911   0.00000   0.10544   0.10557   2.90495
   R17        2.79911   0.23933   0.00000   0.10550   0.10563   2.90473
   R18        2.54760   0.08413   0.00000   0.04368   0.04359   2.59119
   R19        2.52570   0.09465   0.00000   0.04472   0.04454   2.57024
   R20        2.06923  -0.00685   0.00000  -0.00495  -0.00495   2.06428
   R21        2.51929   0.08587   0.00000   0.04457   0.04452   2.56382
[...]
 1,-0.00030131,0.00008398,0.00013691,0.00001738,0.00001704,-0.00043651,
 0.00013358,-0.00014508,0.00049648,0.00031838,-0.00016617,-0.00061764,0
 .00007145,0.00024966,0.00003768,-0.00001545,0.00002220,-0.00011336,-0.
 00006996,-0.00001181,-0.00008078,0.00006042,-0.00003873,0.00004827,0.0
 0007908,-0.00005342,0.08837538,0.32620998,0.00322013,0.01002466,0.0042
 0018,0.01115695,0.05149595,-0.05109847,-0.00269672,-0.00564431,0.00488
 202,-0.00218303,0.00063160,0.00364329,-0.00021733,0.00010215,-0.000242
 66,-0.00335766,0.00262279,0.00639013,0.00010339,-0.00008215,0.00014982
 ,0.00022773,-0.00010394,-0.00114511,0.00004472,0.00064642,0.00069283,0
 .00169917,-0.00091997,-0.00432531,0.00005290,-0.00023615,0.00012109,0.
 00011560,-0.00009064,0.00000120,0.00008960,-0.00015412,0.00007456,-0.0
 0007704,-0.00014749,-0.00076937,-0.00125286,0.00027231,0.00121254,0.00
 000536,0.00000883,0.00003063,-0.00001145,0.00001329,-0.00001156,0.0000
 0833,-0.00002983,0.00000287,-0.00005921,-0.00003544,-0.00017377,-0.007
 66792,-0.05749930,0.03839382,-0.00394955,-0.00268973,-0.00141973,-0.01
 282138,0.02212520,-0.01022683,-0.14953789,0.12184371,-0.06049473,0.010
 55411,-0.00958979,0.00371157,-0.00053064,-0.00282299,-0.00142504,-0.00
 011979,-0.00117386,0.00032283,0.00056290,-0.00033078,0.00001352,0.0001
 1638,-0.00019176,0.00039695,0.00005192,0.00032832,-0.00010010,-0.00021
 898,0.00127361,-0.00040691,0.00018643,-0.00025329,0.00140029,-0.000252
 10,-0.00023985,0.00004249,-0.00008202,-0.00001121,-0.00001631,-0.00018
 947,-0.00004759,-0.00003467,0.00008591,0.00005521,-0.00000085,-0.00367
 626,-0.00138385,-0.00098790,-0.00018615,-0.00067306,0.00033388,-0.0003
 3517,0.00027778,-0.00016270,0.00043208,0.00048235,-0.00000413,0.000698
 02,0.00036955,0.00077549,0.15912242,-0.00243310,0.00074365,0.00034176,
 -0.00660030,0.00815508,-0.00278140,0.12220554,-0.21821601,0.07875357,0
 .01696240,-0.01455530,0.00983853,-0.00381582,-0.00281723,0.00188759,-0
 .00053580,-0.00028674,-0.00010375,0.00085204,-0.00079685,0.00065835,0.
 00003647,-0.00056509,-0.00016803,0.00023449,0.00034380,-0.00000433,0.0
 0002577,0.00030017,-0.00006137,0.00197209,-0.00007611,-0.00080660,-0.0
 0016981,-0.00005374,-0.00007403,0.00002371,0.00009254,-0.00002058,0.00
 005011,-0.00003968,0.00002210,0.00000313,-0.00000733,0.00001115,-0.001
 30206,-0.00028147,0.00016788,-0.00058960,-0.00022055,-0.00030229,0.000
 23627,0.00046265,-0.00005985,0.00006261,0.00017618,-0.00004481,0.00007
 899,0.00064016,-0.00087115,-0.12741946,0.22674660,-0.00148839,0.000275
 79,0.00391619,-0.00257757,0.00459087,0.00218736,-0.06059140,0.07865995
 ,-0.07674876,-0.00335838,0.00302470,0.00437562,-0.00116056,0.00214190,
 0.00708194,0.00015267,-0.00026738,-0.00004928,-0.00030153,0.00035520,0
 .00068156,0.00033651,-0.00022673,-0.00108449,-0.00007509,0.00001946,0.
 00007696,-0.00007419,0.00025885,-0.00004340,0.00080739,-0.00137799,-0.
 00443204,0.00002341,-0.00009202,-0.00013744,-0.00002542,-0.00002927,-0
 .00000595,-0.00006066,-0.00000311,-0.00001984,0.00001324,0.00002468,0.
 00002842,-0.00100979,0.00014709,0.00130685,0.00031145,-0.00032425,-0.0
 0062206,-0.00015180,-0.00004895,-0.00001557,0.00010804,0.00006312,-0.0
 0004171,0.00085275,-0.00079625,-0.00227606,0.06834063,-0.08641003,0.06
 560370,0.00077582,-0.00045915,0.00140931,-0.00020271,-0.00011569,0.000
 00089,0.00008935,-0.00009383,-0.00000783,-0.00008702,0.00000427,-0.000
 01494,0.00003561,0.00026906,-0.00013964,-0.00090649,0.00161056,-0.0007
 4494,0.00139372,-0.00004212,0.00037064,-0.00094764,-0.00178160,0.00023
 472,-0.00335363,-0.00171264,-0.00025463,0.00730003,0.02054604,-0.00493
 153,-0.00002807,0.00000306,0.00000353,-0.05784433,-0.04072722,0.005313
 28,0.00383402,-0.02238153,0.00631361,-0.00477596,-0.00256778,-0.001271
 64,-0.00110019,0.00386754,-0.00290643,0.00001086,-0.00000952,0.0000039
 8,0.00007331,0.00000963,0.00001875,0.00001950,-0.00004954,0.00002486,0
 .00001112,0.00001052,-0.00000231,0.00010315,-0.00008009,0.00004940,0.0
 0001315,-0.00002010,0.00000430,0.05438929,0.00027038,0.00008030,-0.001
 08161,0.00004012,-0.00003803,-0.00000251,-0.00003229,-0.00007751,0.000
 07025,0.00005572,0.00006316,-0.00001141,-0.00003187,-0.00002452,0.0000
 7826,0.00071777,0.00066215,0.00009443,-0.00018665,-0.00013235,-0.00001
 463,-0.00068208,-0.00027766,-0.00010452,-0.00374815,-0.00355423,-0.000
 17136,-0.00438493,-0.00902716,0.00265514,-0.00003335,-0.00006263,-0.00
 000391,-0.03761366,-0.34239296,0.07210819,0.00223230,-0.00247366,0.001
 90740,-0.00085312,0.00012112,0.00050799,0.00061993,0.00089693,0.001573
 30,0.00002558,-0.00000379,0.00000896,-0.00004731,-0.00004254,-0.000003
 40,-0.00003081,0.00003826,-0.00002502,0.00002929,0.00002467,0.00000342
 ,-0.00001714,0.00000281,-0.00000695,-0.00001261,0.00000001,0.00000134,
 0.04353391,0.35617365,0.00121368,-0.00126984,-0.00358285,-0.00003976,-
 0.00004278,-0.00008422,-0.00002473,0.00005393,0.00019635,-0.00002879,-
 0.00002415,-0.00003422,-0.00005855,0.00015527,0.00024283,-0.00050773,0
 .00032462,0.00010662,0.00041148,0.00002256,0.00009182,-0.00005957,-0.0
 0038888,0.00007650,0.00028743,0.00035495,-0.00060204,0.00172643,0.0090
 6000,0.00316166,0.00001317,0.00000552,-0.00004309,0.00448175,0.0713036
 4,-0.05406415,-0.00025954,-0.00441379,0.00363379,-0.00172955,0.0000681
 7,0.00238234,-0.00203874,0.00240855,0.00502711,-0.00000537,-0.00000007
 ,0.00000385,0.00003406,0.00001127,-0.00000395,0.00001990,-0.00002991,-
 0.00001281,-0.00000730,-0.00000140,0.00000771,0.00003293,-0.00002317,0
 .00000777,0.00000237,-0.00000062,0.00001791,-0.00414318,-0.07718155,0.
 04479604,0.00019086,0.00091723,-0.00041869,-0.00035380,-0.00014618,0.0
 0000977,-0.00002647,0.00001945,0.00003784,0.00003165,0.00003255,-0.000
 00296,-0.00003666,-0.00000402,-0.00000821,0.00002143,0.00006023,-0.000
 00581,-0.00008791,-0.00001212,-0.00001428,0.00001241,-0.00003656,0.000
 00692,0.00002958,-0.00003955,0.00001642,-0.00314329,-0.00254197,-0.000
 90484,-0.00001451,-0.00004917,0.00000313,-0.01026738,0.01316484,-0.006
 57271,-0.26963001,0.10579190,-0.08856754,0.00325017,-0.00292550,0.0003
 2516,0.00204329,-0.00131553,-0.00083287,0.00002155,-0.00000200,0.00000
 651,-0.00005878,-0.00003924,-0.00000422,-0.00003437,0.00004118,-0.0000
 1884,0.00002853,0.00002239,0.00000185,0.00000382,-0.00001297,-0.000041
 06,-0.00003670,-0.00000259,-0.00001252,0.00077341,0.00012437,0.0007383
 2,0.27749237,-0.00027614,0.00104220,-0.00011779,-0.00020086,-0.0002670
 0,-0.00004466,-0.00001074,0.00010837,-0.00008330,0.00001436,-0.0000021
 8,0.00000681,0.00000216,0.00000930,-0.00000206,0.00010020,0.00002723,0
 .00001391,-0.00000646,-0.00000271,-0.00000619,-0.00000825,-0.00000807,
 0.00000628,0.00003574,-0.00000473,0.00001217,-0.00394253,-0.00221229,0
 .00038556,-0.00000133,0.00000050,0.00000601,-0.01307353,0.01141105,-0.
 00596870,0.10598274,-0.10802373,0.04677607,0.02316948,-0.00524843,0.00
 869440,0.00110993,-0.00305243,0.00287714,0.00000355,0.00000031,0.00000
 037,-0.00001026,-0.00000852,-0.00000080,-0.00000507,0.00000755,-0.0000
 0431,0.00000726,0.00000264,0.00000065,-0.00003520,0.00010880,0.0000093
 3,-0.00002306,-0.00000489,-0.00000068,0.00122754,-0.00000564,-0.000278
 92,-0.11371225,0.10530759,-0.00010001,0.00018891,0.00079085,0.00002433
 ,-0.00002996,-0.00022609,0.00004543,-0.00007583,-0.00016175,0.00000185
 ,0.00001167,0.00000685,-0.00000978,-0.00000377,-0.00000200,-0.00001663
 ,0.00000350,-0.00002292,-0.00001583,-0.00000756,-0.00002172,-0.0000006
 7,-0.00000106,0.00002350,-0.00000364,-0.00000716,0.00000746,-0.0005308
 1,0.00074513,0.00268845,-0.00000965,-0.00000630,0.00002348,0.00043378,
 0.00077056,0.00154035,-0.08861789,0.04672715,-0.07003245,-0.00664340,0
 .00199204,0.00278704,-0.00148043,0.00225406,0.00567190,0.00000503,-0.0
 0000106,-0.00000016,-0.00001191,-0.00000822,-0.00000248,-0.00000651,0.
 00000754,-0.00000741,0.00000587,0.00000454,-0.00000162,-0.00003503,0.0
 0001449,0.00016414,-0.00000706,0.00000457,0.00001172,0.00044386,-0.000
 56206,-0.00196658,0.09529504,-0.05073191,0.06272099,0.00001208,-0.0013
 7870,-0.00018682,0.00002011,-0.00008967,0.00006691,0.00000644,-0.00002
 579,-0.00000578,0.00000689,-0.00002533,0.00000142,0.00002112,-0.000103
 44,0.00006763,-0.00031367,0.00023112,-0.00013208,-0.00006015,-0.000048
 77,0.00000958,-0.00002083,-0.00003229,-0.00000486,0.00005820,0.0000313
 8,0.00000791,-0.00303123,0.00338046,-0.00187227,0.00000428,-0.00000474
 ,0.00000396,0.00132731,0.00087002,-0.00145192,0.00813389,0.00470484,-0
 .00014384,-0.21228928,-0.16100021,-0.00480277,-0.01069297,-0.01323870,
 0.00149909,-0.00000158,0.00000060,-0.00000159,-0.00000089,0.00000481,-
 0.00000052,0.00000027,-0.00000218,0.00000228,-0.00000656,0.00000070,-0
 .00000201,0.00010461,-0.00006915,0.00003661,-0.00001268,-0.00000173,-0
 .00000399,0.00048277,0.00003418,-0.00003710,-0.00021027,-0.00034562,0.
 00123497,0.21645788,-0.00011766,0.00114557,0.00024400,0.00000292,0.000
 04193,-0.00004984,-0.00001704,0.00005703,-0.00000462,-0.00001345,-0.00
 000103,0.00000418,0.00003499,0.00003650,-0.00003681,0.00034027,-0.0001
 3868,0.00011406,-0.00000417,0.00002351,-0.00001983,0.00001202,0.000102
 93,-0.00001591,-0.00017553,-0.00010444,-0.00001871,0.00387490,-0.00119
 181,0.00151217,0.00001052,0.00002669,-0.00000608,0.00058291,-0.0041826
 9,0.00288912,-0.02003312,-0.00575923,-0.00259191,-0.15911016,-0.202498
 50,0.00621927,0.00788281,0.00718017,-0.00063100,-0.00001108,0.00000156
 ,-0.00000219,0.00002994,0.00001932,0.00000151,0.00001770,-0.00002065,0
 .00000834,-0.00001528,-0.00001401,-0.00000004,-0.00005807,0.00003071,-
 0.00001414,0.00001226,-0.00000072,0.00000458,-0.00101737,0.00004229,-0
 .00011451,0.00066327,0.00081418,-0.00129132,0.16710900,0.20438859,-0.0
 0052311,-0.00007930,0.00205887,0.00004190,-0.00007363,-0.00011741,-0.0
 0000804,-0.00000712,0.00005596,-0.00000171,0.00000111,0.00002682,0.000
 03052,-0.00007196,-0.00010815,-0.00016129,0.00008624,-0.00010235,-0.00
 000212,-0.00003122,-0.00003920,-0.00001661,-0.00002746,0.00003471,0.00
 006335,0.00003476,0.00000200,-0.00200470,0.00138501,-0.00014082,-0.000
 00015,-0.00001011,-0.00000360,-0.00137462,0.00296273,0.00493133,0.0064
 6219,0.00376072,0.00445711,-0.00530807,0.00573450,-0.02908468,-0.00414
 143,-0.00605594,-0.00220931,0.00000158,0.00000080,0.00000420,-0.000007
 36,-0.00000505,-0.00000441,-0.00000310,0.00000335,-0.00000805,0.000002
 33,0.00000412,0.00000005,0.00003383,-0.00001710,0.00004650,-0.00000772
 ,0.00000100,0.00000241,0.00024364,0.00015538,0.00061276,0.00096557,-0.
 00155043,-0.00399720,0.00571667,-0.00620287,0.02357266,-0.00000437,0.0
 0002019,-0.00001357,0.00000077,0.00000004,-0.00001422,-0.00000916,0.00
 009004,0.00001161,-0.00023270,0.00061398,-0.00078085,-0.00012083,-0.00
 023556,0.00004148,-0.00000299,0.00010682,0.00000548,-0.00000165,0.0000
 0341,-0.00000004,-0.00001277,-0.00001201,-0.00000821,-0.00006688,0.000
 01597,-0.00000936,0.00000774,0.00000018,0.00000355,-0.00061097,-0.0033
 5762,0.00054664,-0.00001123,-0.00000126,-0.00000269,0.00000249,0.00001
 102,-0.00000067,0.00001101,-0.00000569,0.00000534,-0.00000410,-0.00000
 352,-0.00000115,-0.01022128,0.00647537,-0.00363944,-0.29734405,0.09506
 418,-0.09492731,0.00218272,-0.00225143,0.00018417,0.00138775,0.0004028
 6,-0.00131064,-0.00000783,-0.00000223,-0.00000261,0.00005792,0.0000813
 5,-0.00001534,0.00000407,0.00000091,-0.00000115,0.00000035,0.00000009,
 -0.00000042,-0.00000066,-0.00000009,-0.00000049,0.30501928,0.00000831,
 0.00001447,0.00000563,-0.00000876,0.00006497,-0.00000461,-0.00000261,0
 .00008209,-0.00006190,-0.00064708,0.00148228,0.00001770,-0.00034468,-0
 .00040407,0.00000897,-0.00003156,0.00006954,-0.00006262,0.00021047,-0.
 00002193,0.00005852,-0.00005636,0.00009189,-0.00003053,-0.00002857,0.0
 0003281,-0.00002857,-0.00001512,0.00002193,-0.00001141,-0.00385227,-0.
 00452654,0.00041516,0.00001474,-0.00000756,0.00000595,-0.00000885,-0.0
 0002374,0.00000237,-0.00003088,0.00000290,-0.00000973,0.00000817,0.000
 00506,0.00000182,-0.01465020,0.00653484,-0.00623747,0.09317392,-0.0853
 9892,0.03968977,0.02249087,0.00243493,0.00613734,0.00069013,-0.0042696
 3,0.00293298,-0.00001622,-0.00000740,-0.00000095,0.00007028,0.00009496
 ,0.00000164,0.00000426,-0.00000015,0.00000317,-0.00000263,-0.00000008,
 -0.00000015,-0.00000095,0.00000169,-0.00000034,-0.09754472,0.08246082,
 -0.00001040,0.00000866,0.00002259,-0.00001190,-0.00000238,0.00005368,0
 .00003635,-0.00003809,-0.00012829,-0.00044501,0.00034143,0.00196694,0.
 00007055,0.00003700,-0.00002980,0.00004236,-0.00002706,-0.00011708,-0.
 00005525,0.00000540,-0.00002066,0.00000360,-0.00001916,0.00003769,0.00
 000249,-0.00001711,-0.00004177,0.00000761,-0.00000748,-0.00000230,0.00
 067845,0.00054218,0.00077366,-0.00000697,0.00000182,-0.00000172,0.0000
 0464,0.00000748,-0.00000718,0.00001207,-0.00000328,0.00000011,-0.00000
 427,-0.00000118,0.00000322,0.00198820,-0.00081480,-0.00203567,-0.09442
 371,0.04017520,-0.06112951,-0.00640680,-0.00021394,0.00221411,-0.00138
 724,0.00285917,0.00495780,0.00000111,0.00000264,0.00000424,-0.00001241
 ,0.00000446,0.00002894,-0.00000204,0.00000231,0.00000647,0.00000030,0.
 00000055,0.00000183,-0.00000026,-0.00000011,0.00000131,0.09903216,-0.0
 4155866,0.05693908,0.00004117,-0.00001407,0.00001189,-0.00001703,-0.00
 003908,0.00005573,-0.00044188,0.00006211,-0.00006826,0.00048408,-0.001
 15259,0.00020877,0.00006713,-0.00003613,0.00003137,-0.00003141,-0.0000
 1348,-0.00000434,0.00002428,0.00005150,-0.00000914,-0.00000218,0.00003
 531,-0.00001598,-0.00008254,-0.00002254,-0.00001013,-0.00002627,0.0000
 3382,-0.00002204,-0.00470739,0.00073172,-0.00217945,0.00003350,-0.0000
 0759,0.00001112,-0.00001872,-0.00005185,0.00001001,-0.00006615,0.00001
 180,-0.00001973,0.00001908,0.00001092,0.00000245,0.00165795,0.00226206
 ,-0.00188504,0.00836012,0.00790211,-0.00124901,-0.18395136,-0.15005009
 ,0.00168435,-0.00770183,-0.02074330,0.00312920,-0.00003917,-0.00001569
 ,-0.00000966,0.00000637,-0.00004278,-0.00003242,0.00000681,-0.00000419
 ,0.00000192,-0.00000500,-0.00000074,-0.00000130,-0.00000037,0.00000224
 ,-0.00000119,-0.00018156,-0.00043165,0.00126435,0.18559250,0.00000416,
 -0.00001533,0.00000768,-0.00000905,0.00009539,-0.00007931,0.00011696,-
 0.00014583,0.00000482,0.00004105,0.00063830,0.00007145,-0.00007617,-0.
 00003566,-0.00001477,-0.00001968,0.00000213,-0.00000575,-0.00002379,0.
 00000253,-0.00000505,0.00000698,0.00001201,0.00000482,-0.00002819,-0.0
 0001013,-0.00000978,-0.00001403,0.00001669,-0.00000159,0.00213254,-0.0
 0005938,0.00136868,0.00000754,-0.00000421,0.00000255,-0.00000561,-0.00
 001401,0.00000130,-0.00001717,0.00000165,-0.00000528,0.00000536,0.0000
 0370,-0.00000007,-0.00016385,-0.00252521,0.00240320,-0.01819783,-0.012
 29155,-0.00005817,-0.15024080,-0.22607335,0.01238947,0.00549996,0.0078
 8078,-0.00025211,0.00000479,-0.00000149,0.00000556,-0.00002066,0.00010
 532,0.00001383,0.00000337,-0.00000056,0.00000201,-0.00000171,0.0000000
 9,-0.00000024,-0.00000048,0.00000091,0.00000014,0.00057743,0.00077669,
 -0.00129985,0.16091157,0.23192979,0.00000703,0.00000302,0.00001048,0.0
 0004780,-0.00008703,-0.00015822,-0.00008288,-0.00000916,-0.00025919,-0
 .00010922,-0.00023492,0.00090154,0.00004206,-0.00000450,-0.00000574,-0
 .00000270,-0.00000418,-0.00000008,0.00001090,0.00001428,0.00000550,-0.
 00000841,0.00001209,0.00001801,-0.00000863,-0.00000831,-0.00001967,-0.
 00000924,0.00001069,0.00001906,-0.00255256,0.00100909,0.00209966,0.000
 00709,-0.00000134,0.00000026,-0.00000235,-0.00001058,-0.00000151,-0.00
 001200,0.00000216,-0.00000528,0.00000392,0.00000135,-0.00000108,-0.001
 23882,0.00302588,0.00552999,0.00570369,0.00664135,0.00472021,0.0017350
 9,0.01243844,-0.03766157,-0.00386172,-0.00698845,0.00250510,-0.0000151
 1,0.00000030,0.00001079,-0.00003830,0.00000807,0.00016507,-0.00000011,
 0.00000007,0.00000368,-0.00000105,0.00000001,0.00000057,-0.00000045,0.
 00000084,0.00000156,0.00099556,-0.00155887,-0.00398841,-0.00156493,-0.
 01389990,0.02799873,-0.00005308,-0.00004576,0.00000710,0.00004115,0.00
 011144,-0.00007483,-0.00020420,0.00004518,-0.00004252,0.00047026,0.001
 18341,0.00089209,-0.00003390,-0.00188895,0.00041128,0.00010827,-0.0002
 4873,0.00001724,-0.00485518,0.00073777,-0.00129313,-0.00156315,0.00115
 607,-0.00070619,0.00112818,0.00060731,0.00012987,-0.00004083,0.0000047
 5,-0.00000017,0.01032236,-0.01341889,0.00490563,0.00002392,-0.00000891
 ,0.00000617,-0.00000365,0.00003834,-0.00000451,0.00004813,0.00002801,0
 .00000737,0.00001389,0.00001652,-0.00000218,0.00066166,-0.00464534,-0.
 00018257,-0.00501379,-0.00014233,-0.00197929,-0.00266837,0.02166542,-0
 .00710367,-0.10737818,0.11041922,-0.04769171,0.00000253,0.00001910,-0.
 00000883,0.00006118,0.00010819,-0.00001133,-0.00006996,-0.00000631,-0.
 00002238,0.00000575,-0.00000101,0.00000079,0.00000530,-0.00000273,0.00
 000013,0.00015892,0.00100196,-0.00037798,0.00097989,-0.00049270,0.0009
 5535,0.10785291,-0.00009711,0.00001628,-0.00003814,0.00004966,-0.00001
 124,0.00007357,-0.00011052,-0.00003546,-0.00004170,0.00045336,0.000502
 43,-0.00114513,-0.00099605,-0.00053975,-0.00002568,0.00005234,-0.00012
 445,0.00012631,0.00277414,-0.00148686,0.00095305,0.00005580,0.00056994
 ,-0.00014077,0.00075230,0.00023370,0.00012886,0.00004114,-0.00004506,0
 .00001063,0.01151726,-0.01319590,0.00784002,-0.00002770,0.00000705,-0.
 00000652,0.00001961,0.00007015,-0.00002060,0.00008499,-0.00000783,0.00
 002134,-0.00001856,-0.00000795,-0.00000129,-0.00139677,-0.00153206,0.0
 0169952,-0.00185718,0.00044774,0.00016178,-0.00295294,0.00648127,-0.00
 181268,0.10730394,-0.27427291,0.09096965,0.00001162,0.00001463,0.00000
 365,0.00004528,0.00006059,-0.00000631,-0.00003161,0.00000804,-0.000004
 07,0.00000656,0.00000091,0.00000243,0.00000062,-0.00000183,0.00000268,
 -0.00004973,0.00048816,0.00001480,0.00061061,-0.00028927,-0.00036042,-
 0.11624106,0.28264968,0.00002083,-0.00002494,-0.00002128,-0.00005837,0
 .00008942,0.00017828,-0.00000108,-0.00000181,-0.00008529,0.00108661,-0
 .00095779,-0.00369944,0.00017350,-0.00025480,0.00043593,-0.00006306,0.
 00004903,0.00027009,-0.00183579,0.00043086,-0.00116755,-0.00041272,0.0
 0014149,-0.00015556,0.00009097,0.00009146,-0.00000870,-0.00000994,0.00
 000122,-0.00004789,-0.00173705,0.00143934,0.00430812,0.00001113,-0.000
 00173,0.00001254,0.00000051,-0.00001575,-0.00002155,-0.00000781,0.0000
 0666,-0.00001348,0.00000718,0.00000778,0.00000499,-0.00104809,0.000865
 82,0.00569422,-0.00152250,0.00060203,0.00229356,-0.00054563,0.00450672
 ,0.00118124,-0.04686159,0.09176870,-0.07265080,-0.00000685,0.00000556,
 0.00001390,0.00000538,0.00000981,-0.00000804,-0.00001554,0.00000248,0.
 00001873,-0.00000123,0.00000049,0.00000328,-0.00000076,0.00000182,0.00
 000693,-0.00009784,0.00028479,0.00049073,0.00066147,-0.00064365,-0.001
 88945,0.05216828,-0.09840499,0.06485650\\0.00000691,0.00000827,-0.0000
 0261,-0.00003675,-0.00001142,-0.00000708,0.00003813,0.00000524,0.00000
 771,-0.00000824,0.00000489,-0.00000562,0.00001299,0.00004848,-0.000020
 06,-0.00002335,0.00004068,-0.00002728,0.00000779,-0.00004762,0.0000420
 0,0.00000408,0.00000926,-0.00003176,-0.00000270,-0.00004998,0.00003992
 ,-0.00002648,-0.00004962,0.00000685,0.00004087,-0.00003620,0.00002050,
 0.00000260,0.00001262,-0.00000275,-0.00000365,0.00002625,-0.00000787,-
 0.00001224,-0.00001682,0.00000135,0.00004168,0.00001521,0.00000665,-0.
 00004383,-0.00000212,-0.00001066,0.00001601,-0.00001111,0.00000707,-0.
 00000498,0.00002607,-0.00000816,-0.00000606,0.00001099,-0.00000451,0.0
 0000473,-0.00000234,0.00000266,-0.00000390,-0.00000429,0.00000097,-0.0
 0000818,0.00000229,-0.00000272,-0.00000371,0.00000345,-0.00000191,0.00
 000147,0.00000424,-0.00000075,-0.00000267,0.00000332,-0.00000158,0.000
 00241,0.00000480,-0.00000070,0.00000706,0.00000548,0.00000034\\\@


 THE WORLD IS NOT A HAMBURGER - YOU CAN'T HAVE IT YOUR WAY.
 Job cpu time:       0 days  2 hours  1 minutes 18.2 seconds.
 Elapsed time:       0 days  0 hours  3 minutes  3.9 seconds.
 File lengths (MBytes):  RWF=    461 Int=      0 D2E=      0 Chk=     18 Scr=      1
 Normal termination of Gaussian 16 at Fri Jul  9 15:19:39 2021.
