 Entering Gaussian System, Link 0=g16
 Input=DON.gjf
 Output=DON.log
 Initial command:
 /home/zc/g16/l1.exe "/tmp/Gau-1258134.inp" -scrdir="/tmp/"
 Entering Link 1 = /home/zc/g16/l1.exe PID=   1258135.
  
 Copyright (c) 1988,1990,1992,1993,1995,1998,2003,2009,2016,
            Gaussian, Inc.  All Rights Reserved.
  
 This is part of the Gaussian(R) 16 program.  It is based on
 the Gaussian(R) 09 system (copyright 2009, Gaussian, Inc.),
 the Gaussian(R) 03 system (copyright 2003, Gaussian, Inc.),
 the Gaussian(R) 98 system (copyright 1998, Gaussian, Inc.),
 the Gaussian(R) 94 system (copyright 1995, Gaussian, Inc.),
 the Gaussian 92(TM) system (copyright 1992, Gaussian, Inc.),
 the Gaussian 90(TM) system (copyright 1990, Gaussian, Inc.),
 the Gaussian 88(TM) system (copyright 1988, Gaussian, Inc.),
 the Gaussian 86(TM) system (copyright 1986, Carnegie Mellon
 University), and the Gaussian 82(TM) system (copyright 1983,
 Carnegie Mellon University). Gaussian is a federally registered
 trademark of Gaussian, Inc.
  
 This software contains proprietary and confidential information,
 including trade secrets, belonging to Gaussian, Inc.
  
 This software is provided under written license and may be
 used, copied, transmitted, or stored only in accord with that
 written license.
  
 The following legend is applicable only to US Government
 contracts under FAR:
  
                    RESTRICTED RIGHTS LEGEND
  
 Use, reproduction and disclosure by the US Government is
 subject to restrictions as set forth in subparagraphs (a)
 and (c) of the Commercial Computer Software - Restricted
 Rights clause in FAR 52.227-19.
  
 Gaussian, Inc.
 340 Quinnipiac St., Bldg. 40, Wallingford CT 06492
  
  
 ---------------------------------------------------------------
 Warning -- This program may not be used in any manner that
 competes with the business of Gaussian, Inc. or will provide
 assistance to any competitor of Gaussian, Inc.  The licensee
 of this program is prohibited from giving any competitor of
 Gaussian, Inc. access to this program.  By using this program,
 the user acknowledges that Gaussian, Inc. is engaged in the
 business of creating and licensing software in the field of
 computational chemistry and represents and warrants to the
 licensee that it is not a competitor of Gaussian, Inc. and that
 it will not use this program in any manner prohibited above.
 ---------------------------------------------------------------
  

 Cite this work as:
 Gaussian 16, Revision A.03,
 M. J. Frisch, G. W. Trucks, H. B. Schlegel, G. E. Scuseria, 
 M. A. Robb, J. R. Cheeseman, G. Scalmani, V. Barone, 
 G. A. Petersson, H. Nakatsuji, X. Li, M. Caricato, A. V. Marenich, 
 J. Bloino, B. G. Janesko, R. Gomperts, B. Mennucci, H. P. Hratchian, 
 J. V. Ortiz, A. F. Izmaylov, J. L. Sonnenberg, D. Williams-Young, 
 F. Ding, F. Lipparini, F. Egidi, J. Goings, B. Peng, A. Petrone, 
 T. Henderson, D. Ranasinghe, V. G. Zakrzewski, J. Gao, N. Rega, 
 G. Zheng, W. Liang, M. Hada, M. Ehara, K. Toyota, R. Fukuda, 
 J. Hasegawa, M. Ishida, T. Nakajima, Y. Honda, O. Kitao, H. Nakai, 
 T. Vreven, K. Throssell, J. A. Montgomery, Jr., J. E. Peralta, 
 F. Ogliaro, M. J. Bearpark, J. J. Heyd, E. N. Brothers, K. N. Kudin, 
 V. N. Staroverov, T. A. Keith, R. Kobayashi, J. Normand, 
 K. Raghavachari, A. P. Rendell, J. C. Burant, S. S. Iyengar, 
 J. Tomasi, M. Cossi, J. M. Millam, M. Klene, C. Adamo, R. Cammi, 
 J. W. Ochterski, R. L. Martin, K. Morokuma, O. Farkas, 
 J. B. Foresman, and D. J. Fox, Gaussian, Inc., Wallingford CT, 2016.
 
 ******************************************
 Gaussian 16:  ES64L-G16RevA.03 25-Dec-2016
                12-Jul-2021 
 ******************************************
 %chk=DON.chk
 %nproc=40
 Will use up to   40 processors via shared memory.
 %mem=40GB
 -------------------------------------------------------------------
 #p opt b3lyp def2svp em(gd3bj) scrf(pcm,solvent=diphenylether) freq
 -------------------------------------------------------------------
 1/18=20,19=15,26=3,38=1/1,3;
 2/9=110,12=2,17=6,18=5,40=1/2;
 3/5=43,7=101,11=2,25=1,30=1,70=2201,71=1,72=112,74=-5,124=41/1,2,3;
 4//1;
 5/5=2,38=5,53=112/2;
 6/7=2,8=2,9=2,10=2,28=1/1;
 7//1,2,3,16;
 1/18=20,19=15,26=3/3(2);
 2/9=110/2;
 99//99;
 2/9=110/2;
 3/5=43,7=101,11=2,25=1,30=1,70=2205,71=1,72=112,74=-5,124=41/1,2,3;
 4/5=5,16=3,69=1/1;
 5/5=2,38=5,53=112/2;
 7//1,2,3,16;
 1/18=20,19=15,26=3/3(-5);
 2/9=110/2;
 6/7=2,8=2,9=2,10=2,19=2,28=1/1;
 99/9=1/99;
 Leave Link    1 at Mon Jul 12 14:46:46 2021, MaxMem=  5368709120 cpu:               3.0 elap:               0.1
 (Enter /home/zc/g16/l101.exe)
 -------------------------------
 DON_sol generated by CoordMagic
 -------------------------------
 Symbolic Z-matrix:
 Charge =  0 Multiplicity = 1
 C                     2.8881    0.2619   -0.2879 
 C                     2.5169   -1.0032   -0.0277 
 C                     1.2403   -1.3175    0.2676 
 C                     0.3969   -0.2643    0.2732 
 C                     0.7681    1.0009    0.0132 
 C                     2.0451    1.3154   -0.2805 
 C                     4.2029    0.2822   -0.5466 
 C                     4.7309   -0.9492   -0.4673 
 S                     3.6702   -1.9023   -0.119 
 C                    -0.9186   -0.285     0.5286 
 C                    -1.4468    0.9461    0.4475 
 S                    -0.3855    1.8998    0.1025 
 C                     2.6086    2.6982   -0.5949 
 C                     1.7327    3.961    -0.615 
 C                     2.5512    5.219    -0.9603 
 C                     1.6755    6.4794   -0.9822 
 C                     0.6774   -2.7       0.5848 
 C                     1.5587   -3.9583    0.6326 
 C                     0.7427   -5.2143    0.9907 
 C                     1.6237   -6.4702    1.041 
 C                     6.0188   -1.3017   -0.667 
 C                    -2.7356    1.298     0.6427 
 C                     6.5285   -2.5444   -0.5834 
 C                     7.8395   -2.5317   -0.8421 
 C                     8.203    -1.2719   -1.0993 
 S                     7.0799   -0.3374   -1.017 
 C                    -3.2458    2.5404    0.5569 
 C                    -4.5577    2.5269    0.8106 
 C                    -4.9214    1.267     1.0667 
 S                    -3.7973    0.3332    0.9891 
 H                     4.7743    1.1876   -0.7922 
 H                    -1.4904   -1.1907    0.7719 
 H                     3.4184    2.8914    0.1508 
 H                     3.0807    2.6299   -1.6056 
 H                     0.9301    3.8578   -1.3836 
 H                     1.2708    4.1227    0.388 
 H                     3.3679    5.3551   -0.2115 
 H                     3.0341    5.0929   -1.9589 
 H                     2.2797    7.3818   -1.2323 
 H                     0.8655    6.3932   -1.7422 
 H                     1.1989    6.6553    0.0092 
 H                     0.1911   -2.625     1.5883 
 H                    -0.1213   -2.9027   -0.1702 
 H                     2.0301   -4.1345   -0.3635 
 H                     2.3541   -3.8387    1.4063 
 H                     0.2503   -5.0746    1.9829 
 H                    -0.0668   -5.366     0.2369 
 H                     1.0212   -7.371     1.3006 
 H                     2.1099   -6.66      0.0569 
 H                     2.4264   -6.3679    1.8067 
 H                     5.9813   -3.4664   -0.3404 
 H                     8.504    -3.4062   -0.8435 
 H                     9.2266   -0.9589   -1.3462 
 H                    -2.6982    3.4626    0.3156 
 H                    -5.2229    3.4009    0.809 
 H                    -5.9458    0.9533    1.3095 
 
 ITRead=  0  0  0  0  0  0  0  0  0  0  0  0  0  0  0  0  0  0  0  0
 ITRead=  0  0  0  0  0  0  0  0  0  0  0  0  0  0  0  0  0  0  0  0
 ITRead=  0  0  0  0  0  0  0  0  0  0  0  0  0  0  0  0
 MicOpt= -1 -1 -1 -1 -1 -1 -1 -1 -1 -1 -1 -1 -1 -1 -1 -1 -1 -1 -1 -1
 MicOpt= -1 -1 -1 -1 -1 -1 -1 -1 -1 -1 -1 -1 -1 -1 -1 -1 -1 -1 -1 -1
 MicOpt= -1 -1 -1 -1 -1 -1 -1 -1 -1 -1 -1 -1 -1 -1 -1 -1
 NAtoms=     56 NQM=       56 NQMF=       0 NMMI=      0 NMMIF=      0
                NMic=       0 NMicF=      0.
                    Isotopes and Nuclear Properties:
 (Nuclear quadrupole moments (NQMom) in fm**2, nuclear magnetic moments (NMagM)
  in nuclear magnetons)

  Atom         1           2           3           4           5           6           7           8           9          10
 IAtWgt=          12          12          12          12          12          12          12          12          32          12
 AtmWgt=  12.0000000  12.0000000  12.0000000  12.0000000  12.0000000  12.0000000  12.0000000  12.0000000  31.9720718  12.0000000
 NucSpn=           0           0           0           0           0           0           0           0           0           0
 AtZEff=  -0.0000000  -0.0000000  -0.0000000  -0.0000000  -0.0000000  -0.0000000  -0.0000000  -0.0000000  -0.0000000  -0.0000000
 NQMom=    0.0000000   0.0000000   0.0000000   0.0000000   0.0000000   0.0000000   0.0000000   0.0000000   0.0000000   0.0000000
 NMagM=    0.0000000   0.0000000   0.0000000   0.0000000   0.0000000   0.0000000   0.0000000   0.0000000   0.0000000   0.0000000
 AtZNuc=   6.0000000   6.0000000   6.0000000   6.0000000   6.0000000   6.0000000   6.0000000   6.0000000  16.0000000   6.0000000

  Atom        11          12          13          14          15          16          17          18          19          20
 IAtWgt=          12          32          12          12          12          12          12          12          12          12
 AtmWgt=  12.0000000  31.9720718  12.0000000  12.0000000  12.0000000  12.0000000  12.0000000  12.0000000  12.0000000  12.0000000
 NucSpn=           0           0           0           0           0           0           0           0           0           0
 AtZEff=  -0.0000000  -0.0000000  -0.0000000  -0.0000000  -0.0000000  -0.0000000  -0.0000000  -0.0000000  -0.0000000  -0.0000000
 NQMom=    0.0000000   0.0000000   0.0000000   0.0000000   0.0000000   0.0000000   0.0000000   0.0000000   0.0000000   0.0000000
 NMagM=    0.0000000   0.0000000   0.0000000   0.0000000   0.0000000   0.0000000   0.0000000   0.0000000   0.0000000   0.0000000
 AtZNuc=   6.0000000  16.0000000   6.0000000   6.0000000   6.0000000   6.0000000   6.0000000   6.0000000   6.0000000   6.0000000

  Atom        21          22          23          24          25          26          27          28          29          30
 IAtWgt=          12          12          12          12          12          32          12          12          12          32
 AtmWgt=  12.0000000  12.0000000  12.0000000  12.0000000  12.0000000  31.9720718  12.0000000  12.0000000  12.0000000  31.9720718
 NucSpn=           0           0           0           0           0           0           0           0           0           0
 AtZEff=  -0.0000000  -0.0000000  -0.0000000  -0.0000000  -0.0000000  -0.0000000  -0.0000000  -0.0000000  -0.0000000  -0.0000000
 NQMom=    0.0000000   0.0000000   0.0000000   0.0000000   0.0000000   0.0000000   0.0000000   0.0000000   0.0000000   0.0000000
 NMagM=    0.0000000   0.0000000   0.0000000   0.0000000   0.0000000   0.0000000   0.0000000   0.0000000   0.0000000   0.0000000
 AtZNuc=   6.0000000   6.0000000   6.0000000   6.0000000   6.0000000  16.0000000   6.0000000   6.0000000   6.0000000  16.0000000

  Atom        31          32          33          34          35          36          37          38          39          40
 IAtWgt=           1           1           1           1           1           1           1           1           1           1
 AtmWgt=   1.0078250   1.0078250   1.0078250   1.0078250   1.0078250   1.0078250   1.0078250   1.0078250   1.0078250   1.0078250
 NucSpn=           1           1           1           1           1           1           1           1           1           1
 AtZEff=  -0.0000000  -0.0000000  -0.0000000  -0.0000000  -0.0000000  -0.0000000  -0.0000000  -0.0000000  -0.0000000  -0.0000000
 NQMom=    0.0000000   0.0000000   0.0000000   0.0000000   0.0000000   0.0000000   0.0000000   0.0000000   0.0000000   0.0000000
 NMagM=    2.7928460   2.7928460   2.7928460   2.7928460   2.7928460   2.7928460   2.7928460   2.7928460   2.7928460   2.7928460
 AtZNuc=   1.0000000   1.0000000   1.0000000   1.0000000   1.0000000   1.0000000   1.0000000   1.0000000   1.0000000   1.0000000

  Atom        41          42          43          44          45          46          47          48          49          50
 IAtWgt=           1           1           1           1           1           1           1           1           1           1
 AtmWgt=   1.0078250   1.0078250   1.0078250   1.0078250   1.0078250   1.0078250   1.0078250   1.0078250   1.0078250   1.0078250
 NucSpn=           1           1           1           1           1           1           1           1           1           1
 AtZEff=  -0.0000000  -0.0000000  -0.0000000  -0.0000000  -0.0000000  -0.0000000  -0.0000000  -0.0000000  -0.0000000  -0.0000000
 NQMom=    0.0000000   0.0000000   0.0000000   0.0000000   0.0000000   0.0000000   0.0000000   0.0000000   0.0000000   0.0000000
 NMagM=    2.7928460   2.7928460   2.7928460   2.7928460   2.7928460   2.7928460   2.7928460   2.7928460   2.7928460   2.7928460
 AtZNuc=   1.0000000   1.0000000   1.0000000   1.0000000   1.0000000   1.0000000   1.0000000   1.0000000   1.0000000   1.0000000

  Atom        51          52          53          54          55          56
 IAtWgt=           1           1           1           1           1           1
 AtmWgt=   1.0078250   1.0078250   1.0078250   1.0078250   1.0078250   1.0078250
 NucSpn=           1           1           1           1           1           1
 AtZEff=  -0.0000000  -0.0000000  -0.0000000  -0.0000000  -0.0000000  -0.0000000
 NQMom=    0.0000000   0.0000000   0.0000000   0.0000000   0.0000000   0.0000000
 NMagM=    2.7928460   2.7928460   2.7928460   2.7928460   2.7928460   2.7928460
 AtZNuc=   1.0000000   1.0000000   1.0000000   1.0000000   1.0000000   1.0000000
 Leave Link  101 at Mon Jul 12 14:46:47 2021, MaxMem=  5368709120 cpu:              14.2 elap:               0.4
 (Enter /home/zc/g16/l103.exe)

 GradGradGradGradGradGradGradGradGradGradGradGradGradGradGradGradGradGrad
 Berny optimization.
 Initialization pass.
                           ----------------------------
                           !    Initial Parameters    !
                           ! (Angstroms and Degrees)  !
 --------------------------                            --------------------------
 ! Name  Definition              Value          Derivative Info.                !
 --------------------------------------------------------------------------------
 ! R1    R(1,2)                  1.3439         estimate D2E/DX2                !
 ! R2    R(1,6)                  1.3493         estimate D2E/DX2                !
 ! R3    R(1,7)                  1.3402         estimate D2E/DX2                !
 ! R4    R(2,3)                  1.3475         estimate D2E/DX2                !
 ! R5    R(2,9)                  1.4652         estimate D2E/DX2                !
 ! R6    R(3,4)                  1.3493         estimate D2E/DX2                !
 ! R7    R(3,17)                 1.526          estimate D2E/DX2                !
 ! R8    R(4,5)                  1.3439         estimate D2E/DX2                !
 ! R9    R(4,10)                 1.3402         estimate D2E/DX2                !
 ! R10   R(5,6)                  1.3476         estimate D2E/DX2                !
 ! R11   R(5,12)                 1.4652         estimate D2E/DX2                !
 ! R12   R(6,13)                 1.5259         estimate D2E/DX2                !
 ! R13   R(7,8)                  1.3422         estimate D2E/DX2                !
 ! R14   R(7,31)                 1.0984         estimate D2E/DX2                !
 ! R15   R(8,9)                  1.4679         estimate D2E/DX2                !
 ! R16   R(8,21)                 1.3501         estimate D2E/DX2                !
 ! R17   R(10,11)                1.3421         estimate D2E/DX2                !
 ! R18   R(10,32)                1.0984         estimate D2E/DX2                !
 ! R19   R(11,12)                1.468          estimate D2E/DX2                !
 ! R20   R(11,22)                1.3502         estimate D2E/DX2                !
 ! R21   R(13,14)                1.537          estimate D2E/DX2                !
 ! R22   R(13,33)                1.1177         estimate D2E/DX2                !
 ! R23   R(13,34)                1.1176         estimate D2E/DX2                !
 ! R24   R(14,15)                1.54           estimate D2E/DX2                !
 ! R25   R(14,35)                1.116          estimate D2E/DX2                !
 ! R26   R(14,36)                1.116          estimate D2E/DX2                !
 ! R27   R(15,16)                1.5349         estimate D2E/DX2                !
 ! R28   R(15,37)                1.1163         estimate D2E/DX2                !
 ! R29   R(15,38)                1.1164         estimate D2E/DX2                !
 ! R30   R(16,39)                1.1144         estimate D2E/DX2                !
 ! R31   R(16,40)                1.1141         estimate D2E/DX2                !
 ! R32   R(16,41)                1.114          estimate D2E/DX2                !
 ! R33   R(17,18)                1.537          estimate D2E/DX2                !
 ! R34   R(17,42)                1.1176         estimate D2E/DX2                !
 ! R35   R(17,43)                1.1176         estimate D2E/DX2                !
 ! R36   R(18,19)                1.54           estimate D2E/DX2                !
 ! R37   R(18,44)                1.116          estimate D2E/DX2                !
 ! R38   R(18,45)                1.1161         estimate D2E/DX2                !
 ! R39   R(19,20)                1.5349         estimate D2E/DX2                !
 ! R40   R(19,46)                1.1164         estimate D2E/DX2                !
 ! R41   R(19,47)                1.1165         estimate D2E/DX2                !
 ! R42   R(20,48)                1.1144         estimate D2E/DX2                !
 ! R43   R(20,49)                1.1139         estimate D2E/DX2                !
 ! R44   R(20,50)                1.114          estimate D2E/DX2                !
 ! R45   R(21,23)                1.3458         estimate D2E/DX2                !
 ! R46   R(21,26)                1.4759         estimate D2E/DX2                !
 ! R47   R(22,27)                1.3458         estimate D2E/DX2                !
 ! R48   R(22,30)                1.4758         estimate D2E/DX2                !
 ! R49   R(23,24)                1.3363         estimate D2E/DX2                !
 ! R50   R(23,51)                1.0993         estimate D2E/DX2                !
 ! R51   R(24,25)                1.3362         estimate D2E/DX2                !
 ! R52   R(24,52)                1.0983         estimate D2E/DX2                !
 ! R53   R(25,26)                1.4634         estimate D2E/DX2                !
 ! R54   R(25,53)                1.0985         estimate D2E/DX2                !
 ! R55   R(27,28)                1.3363         estimate D2E/DX2                !
 ! R56   R(27,54)                1.0993         estimate D2E/DX2                !
 ! R57   R(28,29)                1.3361         estimate D2E/DX2                !
 ! R58   R(28,55)                1.0983         estimate D2E/DX2                !
 ! R59   R(29,30)                1.4634         estimate D2E/DX2                !
 ! R60   R(29,56)                1.0985         estimate D2E/DX2                !
 ! A1    A(2,1,6)              124.1517         estimate D2E/DX2                !
 ! A2    A(2,1,7)              108.8218         estimate D2E/DX2                !
 ! A3    A(6,1,7)              127.0265         estimate D2E/DX2                !
 ! A4    A(1,2,3)              121.5809         estimate D2E/DX2                !
 ! A5    A(1,2,9)              110.3764         estimate D2E/DX2                !
 ! A6    A(3,2,9)              128.0427         estimate D2E/DX2                !
 ! A7    A(2,3,4)              114.2698         estimate D2E/DX2                !
 ! A8    A(2,3,17)             127.3244         estimate D2E/DX2                !
 ! A9    A(4,3,17)             118.4058         estimate D2E/DX2                !
 ! A10   A(3,4,5)              124.1517         estimate D2E/DX2                !
 ! A11   A(3,4,10)             127.0329         estimate D2E/DX2                !
 ! A12   A(5,4,10)             108.8154         estimate D2E/DX2                !
 ! A13   A(4,5,6)              121.5758         estimate D2E/DX2                !
 ! A14   A(4,5,12)             110.3839         estimate D2E/DX2                !
 ! A15   A(6,5,12)             128.0403         estimate D2E/DX2                !
 ! A16   A(1,6,5)              114.2699         estimate D2E/DX2                !
 ! A17   A(1,6,13)             118.4045         estimate D2E/DX2                !
 ! A18   A(5,6,13)             127.3255         estimate D2E/DX2                !
 ! A19   A(1,7,8)              111.1398         estimate D2E/DX2                !
 ! A20   A(1,7,31)             124.4714         estimate D2E/DX2                !
 ! A21   A(8,7,31)             124.3888         estimate D2E/DX2                !
 ! A22   A(7,8,9)              108.9933         estimate D2E/DX2                !
 ! A23   A(7,8,21)             127.3055         estimate D2E/DX2                !
 ! A24   A(9,8,21)             123.7012         estimate D2E/DX2                !
 ! A25   A(2,9,8)              100.6686         estimate D2E/DX2                !
 ! A26   A(4,10,11)            111.1385         estimate D2E/DX2                !
 ! A27   A(4,10,32)            124.4668         estimate D2E/DX2                !
 ! A28   A(11,10,32)           124.3947         estimate D2E/DX2                !
 ! A29   A(10,11,12)           109.0028         estimate D2E/DX2                !
 ! A30   A(10,11,22)           127.3028         estimate D2E/DX2                !
 ! A31   A(12,11,22)           123.6945         estimate D2E/DX2                !
 ! A32   A(5,12,11)            100.6594         estimate D2E/DX2                !
 ! A33   A(6,13,14)            122.4654         estimate D2E/DX2                !
 ! A34   A(6,13,33)            106.6628         estimate D2E/DX2                !
 ! A35   A(6,13,34)            106.6747         estimate D2E/DX2                !
 ! A36   A(14,13,33)           106.237          estimate D2E/DX2                !
 ! A37   A(14,13,34)           106.2074         estimate D2E/DX2                !
 ! A38   A(33,13,34)           107.9311         estimate D2E/DX2                !
 ! A39   A(13,14,15)           111.7894         estimate D2E/DX2                !
 ! A40   A(13,14,35)           110.0515         estimate D2E/DX2                !
 ! A41   A(13,14,36)           110.0693         estimate D2E/DX2                !
 ! A42   A(15,14,35)           107.6578         estimate D2E/DX2                !
 ! A43   A(15,14,36)           107.6452         estimate D2E/DX2                !
 ! A44   A(35,14,36)           109.5539         estimate D2E/DX2                !
 ! A45   A(14,15,16)           111.7618         estimate D2E/DX2                !
 ! A46   A(14,15,37)           109.756          estimate D2E/DX2                !
 ! A47   A(14,15,38)           109.7665         estimate D2E/DX2                !
 ! A48   A(16,15,37)           109.0774         estimate D2E/DX2                !
 ! A49   A(16,15,38)           109.0732         estimate D2E/DX2                !
 ! A50   A(37,15,38)           107.2963         estimate D2E/DX2                !
 ! A51   A(15,16,39)           111.0274         estimate D2E/DX2                !
 ! A52   A(15,16,40)           111.1621         estimate D2E/DX2                !
 ! A53   A(15,16,41)           111.1649         estimate D2E/DX2                !
 ! A54   A(39,16,40)           107.6829         estimate D2E/DX2                !
 ! A55   A(39,16,41)           107.6873         estimate D2E/DX2                !
 ! A56   A(40,16,41)           107.9552         estimate D2E/DX2                !
 ! A57   A(3,17,18)            122.4553         estimate D2E/DX2                !
 ! A58   A(3,17,42)            106.6386         estimate D2E/DX2                !
 ! A59   A(3,17,43)            106.7085         estimate D2E/DX2                !
 ! A60   A(18,17,42)           106.0519         estimate D2E/DX2                !
 ! A61   A(18,17,43)           106.3979         estimate D2E/DX2                !
 ! A62   A(42,17,43)           107.9253         estimate D2E/DX2                !
 ! A63   A(17,18,19)           111.7841         estimate D2E/DX2                !
 ! A64   A(17,18,44)           110.1025         estimate D2E/DX2                !
 ! A65   A(17,18,45)           110.0282         estimate D2E/DX2                !
 ! A66   A(19,18,44)           107.6135         estimate D2E/DX2                !
 ! A67   A(19,18,45)           107.6878         estimate D2E/DX2                !
 ! A68   A(44,18,45)           109.5507         estimate D2E/DX2                !
 ! A69   A(18,19,20)           111.7658         estimate D2E/DX2                !
 ! A70   A(18,19,46)           109.7731         estimate D2E/DX2                !
 ! A71   A(18,19,47)           109.7551         estimate D2E/DX2                !
 ! A72   A(20,19,46)           109.0509         estimate D2E/DX2                !
 ! A73   A(20,19,47)           109.0934         estimate D2E/DX2                !
 ! A74   A(46,19,47)           107.2925         estimate D2E/DX2                !
 ! A75   A(19,20,48)           111.0211         estimate D2E/DX2                !
 ! A76   A(19,20,49)           111.1605         estimate D2E/DX2                !
 ! A77   A(19,20,50)           111.1587         estimate D2E/DX2                !
 ! A78   A(48,20,49)           107.7011         estimate D2E/DX2                !
 ! A79   A(48,20,50)           107.6785         estimate D2E/DX2                !
 ! A80   A(49,20,50)           107.9605         estimate D2E/DX2                !
 ! A81   A(8,21,23)            126.3839         estimate D2E/DX2                !
 ! A82   A(8,21,26)            123.388          estimate D2E/DX2                !
 ! A83   A(23,21,26)           110.228          estimate D2E/DX2                !
 ! A84   A(11,22,27)           126.3887         estimate D2E/DX2                !
 ! A85   A(11,22,30)           123.3841         estimate D2E/DX2                !
 ! A86   A(27,22,30)           110.2272         estimate D2E/DX2                !
 ! A87   A(21,23,24)           110.5338         estimate D2E/DX2                !
 ! A88   A(21,23,51)           126.8457         estimate D2E/DX2                !
 ! A89   A(24,23,51)           122.6206         estimate D2E/DX2                !
 ! A90   A(23,24,25)           108.2467         estimate D2E/DX2                !
 ! A91   A(23,24,52)           125.8893         estimate D2E/DX2                !
 ! A92   A(25,24,52)           125.864          estimate D2E/DX2                !
 ! A93   A(24,25,26)           112.4874         estimate D2E/DX2                !
 ! A94   A(24,25,53)           124.4307         estimate D2E/DX2                !
 ! A95   A(26,25,53)           123.0819         estimate D2E/DX2                !
 ! A96   A(21,26,25)            98.5041         estimate D2E/DX2                !
 ! A97   A(22,27,28)           110.5335         estimate D2E/DX2                !
 ! A98   A(22,27,54)           126.8387         estimate D2E/DX2                !
 ! A99   A(28,27,54)           122.6278         estimate D2E/DX2                !
 ! A100  A(27,28,29)           108.2497         estimate D2E/DX2                !
 ! A101  A(27,28,55)           125.893          estimate D2E/DX2                !
 ! A102  A(29,28,55)           125.8573         estimate D2E/DX2                !
 ! A103  A(28,29,30)           112.4849         estimate D2E/DX2                !
 ! A104  A(28,29,56)           124.4355         estimate D2E/DX2                !
 ! A105  A(30,29,56)           123.0796         estimate D2E/DX2                !
 ! A106  A(22,30,29)            98.5047         estimate D2E/DX2                !
 ! D1    D(6,1,2,3)             -0.0146         estimate D2E/DX2                !
 ! D2    D(6,1,2,9)            179.9755         estimate D2E/DX2                !
 ! D3    D(7,1,2,3)            179.9837         estimate D2E/DX2                !
 ! D4    D(7,1,2,9)             -0.0261         estimate D2E/DX2                !
 ! D5    D(2,1,6,5)             -0.0637         estimate D2E/DX2                !
 ! D6    D(2,1,6,13)           179.9713         estimate D2E/DX2                !
 ! D7    D(7,1,6,5)            179.9383         estimate D2E/DX2                !
 ! D8    D(7,1,6,13)            -0.0268         estimate D2E/DX2                !
 ! D9    D(2,1,7,8)              0.0457         estimate D2E/DX2                !
 ! D10   D(2,1,7,31)          -179.9954         estimate D2E/DX2                !
 ! D11   D(6,1,7,8)           -179.956          estimate D2E/DX2                !
 ! D12   D(6,1,7,31)             0.0029         estimate D2E/DX2                !
 ! D13   D(1,2,3,4)              0.1002         estimate D2E/DX2                !
 ! D14   D(1,2,3,17)          -179.8978         estimate D2E/DX2                !
 ! D15   D(9,2,3,4)           -179.888          estimate D2E/DX2                !
 ! D16   D(9,2,3,17)             0.1139         estimate D2E/DX2                !
 ! D17   D(1,2,9,8)             -0.0011         estimate D2E/DX2                !
 ! D18   D(3,2,9,8)            179.9882         estimate D2E/DX2                !
 ! D19   D(2,3,4,5)             -0.114          estimate D2E/DX2                !
 ! D20   D(2,3,4,10)           179.8266         estimate D2E/DX2                !
 ! D21   D(17,3,4,5)           179.8843         estimate D2E/DX2                !
 ! D22   D(17,3,4,10)           -0.1751         estimate D2E/DX2                !
 ! D23   D(2,3,17,18)            1.2824         estimate D2E/DX2                !
 ! D24   D(2,3,17,42)          123.4277         estimate D2E/DX2                !
 ! D25   D(2,3,17,43)         -121.4157         estimate D2E/DX2                !
 ! D26   D(4,3,17,18)         -178.7155         estimate D2E/DX2                !
 ! D27   D(4,3,17,42)          -56.5703         estimate D2E/DX2                !
 ! D28   D(4,3,17,43)           58.5863         estimate D2E/DX2                !
 ! D29   D(3,4,5,6)              0.0392         estimate D2E/DX2                !
 ! D30   D(3,4,5,12)          -179.9616         estimate D2E/DX2                !
 ! D31   D(10,4,5,6)          -179.9107         estimate D2E/DX2                !
 ! D32   D(10,4,5,12)            0.0885         estimate D2E/DX2                !
 ! D33   D(3,4,10,11)          179.9938         estimate D2E/DX2                !
 ! D34   D(3,4,10,32)           -0.0419         estimate D2E/DX2                !
 ! D35   D(5,4,10,11)           -0.0582         estimate D2E/DX2                !
 ! D36   D(5,4,10,32)          179.9061         estimate D2E/DX2                !
 ! D37   D(4,5,6,1)              0.0514         estimate D2E/DX2                !
 ! D38   D(4,5,6,13)          -179.9873         estimate D2E/DX2                !
 ! D39   D(12,5,6,1)          -179.9477         estimate D2E/DX2                !
 ! D40   D(12,5,6,13)            0.0136         estimate D2E/DX2                !
 ! D41   D(4,5,12,11)           -0.0802         estimate D2E/DX2                !
 ! D42   D(6,5,12,11)          179.9189         estimate D2E/DX2                !
 ! D43   D(1,6,13,14)          179.8776         estimate D2E/DX2                !
 ! D44   D(1,6,13,33)          -57.6865         estimate D2E/DX2                !
 ! D45   D(1,6,13,34)           57.4722         estimate D2E/DX2                !
 ! D46   D(5,6,13,14)           -0.0823         estimate D2E/DX2                !
 ! D47   D(5,6,13,33)          122.3536         estimate D2E/DX2                !
 ! D48   D(5,6,13,34)         -122.4877         estimate D2E/DX2                !
 ! D49   D(1,7,8,9)             -0.0466         estimate D2E/DX2                !
 ! D50   D(1,7,8,21)           179.9313         estimate D2E/DX2                !
 ! D51   D(31,7,8,9)           179.9945         estimate D2E/DX2                !
 ! D52   D(31,7,8,21)           -0.0277         estimate D2E/DX2                !
 ! D53   D(7,8,9,2)              0.028          estimate D2E/DX2                !
 ! D54   D(21,8,9,2)          -179.9508         estimate D2E/DX2                !
 ! D55   D(7,8,21,23)         -179.9509         estimate D2E/DX2                !
 ! D56   D(7,8,21,26)            0.0267         estimate D2E/DX2                !
 ! D57   D(9,8,21,23)            0.0239         estimate D2E/DX2                !
 ! D58   D(9,8,21,26)         -179.9985         estimate D2E/DX2                !
 ! D59   D(4,10,11,12)           0.0045         estimate D2E/DX2                !
 ! D60   D(4,10,11,22)        -179.9932         estimate D2E/DX2                !
 ! D61   D(32,10,11,12)       -179.9598         estimate D2E/DX2                !
 ! D62   D(32,10,11,22)          0.0425         estimate D2E/DX2                !
 ! D63   D(10,11,12,5)           0.0447         estimate D2E/DX2                !
 ! D64   D(22,11,12,5)        -179.9574         estimate D2E/DX2                !
 ! D65   D(10,11,22,27)        179.9779         estimate D2E/DX2                !
 ! D66   D(10,11,22,30)         -0.0171         estimate D2E/DX2                !
 ! D67   D(12,11,22,27)         -0.0195         estimate D2E/DX2                !
 ! D68   D(12,11,22,30)        179.9855         estimate D2E/DX2                !
 ! D69   D(6,13,14,15)        -179.9789         estimate D2E/DX2                !
 ! D70   D(6,13,14,35)         -60.3977         estimate D2E/DX2                !
 ! D71   D(6,13,14,36)          60.444          estimate D2E/DX2                !
 ! D72   D(33,13,14,15)         57.3881         estimate D2E/DX2                !
 ! D73   D(33,13,14,35)        176.9693         estimate D2E/DX2                !
 ! D74   D(33,13,14,36)        -62.189          estimate D2E/DX2                !
 ! D75   D(34,13,14,15)        -57.3571         estimate D2E/DX2                !
 ! D76   D(34,13,14,35)         62.224          estimate D2E/DX2                !
 ! D77   D(34,13,14,36)       -176.9343         estimate D2E/DX2                !
 ! D78   D(13,14,15,16)        179.9172         estimate D2E/DX2                !
 ! D79   D(13,14,15,37)        -58.9309         estimate D2E/DX2                !
 ! D80   D(13,14,15,38)         58.7633         estimate D2E/DX2                !
 ! D81   D(35,14,15,16)         58.936          estimate D2E/DX2                !
 ! D82   D(35,14,15,37)       -179.9121         estimate D2E/DX2                !
 ! D83   D(35,14,15,38)        -62.2179         estimate D2E/DX2                !
 ! D84   D(36,14,15,16)        -59.0879         estimate D2E/DX2                !
 ! D85   D(36,14,15,37)         62.064          estimate D2E/DX2                !
 ! D86   D(36,14,15,38)        179.7582         estimate D2E/DX2                !
 ! D87   D(14,15,16,39)        179.9542         estimate D2E/DX2                !
 ! D88   D(14,15,16,40)        -60.1937         estimate D2E/DX2                !
 ! D89   D(14,15,16,41)         60.0948         estimate D2E/DX2                !
 ! D90   D(37,15,16,39)         58.4097         estimate D2E/DX2                !
 ! D91   D(37,15,16,40)        178.2617         estimate D2E/DX2                !
 ! D92   D(37,15,16,41)        -61.4498         estimate D2E/DX2                !
 ! D93   D(38,15,16,39)        -58.4908         estimate D2E/DX2                !
 ! D94   D(38,15,16,40)         61.3613         estimate D2E/DX2                !
 ! D95   D(38,15,16,41)       -178.3502         estimate D2E/DX2                !
 ! D96   D(3,17,18,19)         179.3264         estimate D2E/DX2                !
 ! D97   D(3,17,18,44)         -61.1175         estimate D2E/DX2                !
 ! D98   D(3,17,18,45)          59.7266         estimate D2E/DX2                !
 ! D99   D(42,17,18,19)         56.9087         estimate D2E/DX2                !
 ! D100  D(42,17,18,44)        176.4648         estimate D2E/DX2                !
 ! D101  D(42,17,18,45)        -62.6911         estimate D2E/DX2                !
 ! D102  D(43,17,18,19)        -57.832          estimate D2E/DX2                !
 ! D103  D(43,17,18,44)         61.724          estimate D2E/DX2                !
 ! D104  D(43,17,18,45)       -177.4319         estimate D2E/DX2                !
 ! D105  D(17,18,19,20)       -179.889          estimate D2E/DX2                !
 ! D106  D(17,18,19,46)        -58.7562         estimate D2E/DX2                !
 ! D107  D(17,18,19,47)         58.9368         estimate D2E/DX2                !
 ! D108  D(44,18,19,20)         59.0989         estimate D2E/DX2                !
 ! D109  D(44,18,19,46)       -179.7682         estimate D2E/DX2                !
 ! D110  D(44,18,19,47)        -62.0752         estimate D2E/DX2                !
 ! D111  D(45,18,19,20)        -58.9202         estimate D2E/DX2                !
 ! D112  D(45,18,19,46)         62.2126         estimate D2E/DX2                !
 ! D113  D(45,18,19,47)        179.9056         estimate D2E/DX2                !
 ! D114  D(18,19,20,48)       -179.9807         estimate D2E/DX2                !
 ! D115  D(18,19,20,49)        -60.1109         estimate D2E/DX2                !
 ! D116  D(18,19,20,50)         60.1792         estimate D2E/DX2                !
 ! D117  D(46,19,20,48)         58.4685         estimate D2E/DX2                !
 ! D118  D(46,19,20,49)        178.3384         estimate D2E/DX2                !
 ! D119  D(46,19,20,50)        -61.3716         estimate D2E/DX2                !
 ! D120  D(47,19,20,48)        -58.4238         estimate D2E/DX2                !
 ! D121  D(47,19,20,49)         61.4461         estimate D2E/DX2                !
 ! D122  D(47,19,20,50)       -178.2639         estimate D2E/DX2                !
 ! D123  D(8,21,23,24)         179.9712         estimate D2E/DX2                !
 ! D124  D(8,21,23,51)          -0.0096         estimate D2E/DX2                !
 ! D125  D(26,21,23,24)         -0.0089         estimate D2E/DX2                !
 ! D126  D(26,21,23,51)       -179.9897         estimate D2E/DX2                !
 ! D127  D(8,21,26,25)        -179.9673         estimate D2E/DX2                !
 ! D128  D(23,21,26,25)          0.0135         estimate D2E/DX2                !
 ! D129  D(11,22,27,28)       -179.9978         estimate D2E/DX2                !
 ! D130  D(11,22,27,54)         -0.0047         estimate D2E/DX2                !
 ! D131  D(30,22,27,28)         -0.0022         estimate D2E/DX2                !
 ! D132  D(30,22,27,54)        179.9908         estimate D2E/DX2                !
 ! D133  D(11,22,30,29)        179.9972         estimate D2E/DX2                !
 ! D134  D(27,22,30,29)          0.0015         estimate D2E/DX2                !
 ! D135  D(21,23,24,25)         -0.0007         estimate D2E/DX2                !
 ! D136  D(21,23,24,52)       -179.98           estimate D2E/DX2                !
 ! D137  D(51,23,24,25)        179.981          estimate D2E/DX2                !
 ! D138  D(51,23,24,52)          0.0017         estimate D2E/DX2                !
 ! D139  D(23,24,25,26)          0.0103         estimate D2E/DX2                !
 ! D140  D(23,24,25,53)       -179.9897         estimate D2E/DX2                !
 ! D141  D(52,24,25,26)        179.9896         estimate D2E/DX2                !
 ! D142  D(52,24,25,53)         -0.0104         estimate D2E/DX2                !
 ! D143  D(24,25,26,21)         -0.0143         estimate D2E/DX2                !
 ! D144  D(53,25,26,21)        179.9857         estimate D2E/DX2                !
 ! D145  D(22,27,28,29)          0.0019         estimate D2E/DX2                !
 ! D146  D(22,27,28,55)       -179.9996         estimate D2E/DX2                !
 ! D147  D(54,27,28,29)       -179.9914         estimate D2E/DX2                !
 ! D148  D(54,27,28,55)          0.007          estimate D2E/DX2                !
 ! D149  D(27,28,29,30)         -0.0009         estimate D2E/DX2                !
 ! D150  D(27,28,29,56)       -179.9917         estimate D2E/DX2                !
 ! D151  D(55,28,29,30)       -179.9994         estimate D2E/DX2                !
 ! D152  D(55,28,29,56)          0.0098         estimate D2E/DX2                !
 ! D153  D(28,29,30,22)         -0.0003         estimate D2E/DX2                !
 ! D154  D(56,29,30,22)        179.9906         estimate D2E/DX2                !
 --------------------------------------------------------------------------------
 Trust Radius=3.00D-01 FncErr=1.00D-07 GrdErr=1.00D-06 EigMax=2.50D+02 EigMin=1.00D-04
 Number of steps in this run=    330 maximum allowed number of steps=    336.
 GradGradGradGradGradGradGradGradGradGradGradGradGradGradGradGradGradGrad

 Leave Link  103 at Mon Jul 12 14:46:47 2021, MaxMem=  5368709120 cpu:               0.5 elap:               0.0
 (Enter /home/zc/g16/l202.exe)
 Stoichiometry    C26H26S4
 Framework group  C1[X(C26H26S4)]
 Deg. of freedom   162
 Full point group                 C1      NOp   1
 Largest Abelian subgroup         C1      NOp   1
 Largest concise Abelian subgroup C1      NOp   1
                         Standard orientation:                         
 ---------------------------------------------------------------------
 Center     Atomic      Atomic             Coordinates (Angstroms)
 Number     Number       Type             X           Y           Z
 ---------------------------------------------------------------------
      1          6           0        1.059347    0.759687   -0.000259
      2          6           0        1.198422   -0.576949   -0.006145
      3          6           0        0.129698   -1.397633   -0.007796
      4          6           0       -1.059335   -0.759840   -0.005231
      5          6           0       -1.198473    0.576844    0.000864
      6          6           0       -0.129651    1.397519    0.004174
      7          6           0        2.276289    1.321015    0.000404
      8          6           0        3.240162    0.387031   -0.005937
      9         16           0        2.617358   -0.942215   -0.010337
     10          6           0       -2.276370   -1.321093   -0.009289
     11          6           0       -3.240097   -0.387075   -0.004778
     12         16           0       -2.617370    0.942239    0.003029
     13          6           0       -0.134788    2.923441    0.011343
     14          6           0       -1.434322    3.744096    0.013998
     15          6           0       -1.154117    5.258419    0.020851
     16          6           0       -2.452299    6.077358    0.021440
     17          6           0        0.134936   -2.923651   -0.012090
     18          6           0        1.434369   -3.744075    0.013832
     19          6           0        1.154153   -5.258363    0.020173
     20          6           0        2.452063   -6.077256    0.048822
     21          6           0        4.575110    0.588848   -0.008559
     22          6           0       -4.575102   -0.588819   -0.006782
     23          6           0        5.526376   -0.363058   -0.015870
     24          6           0        6.742907    0.189987   -0.017056
     25          6           0        6.598608    1.518337   -0.010504
     26         16           0        5.193989    1.928727   -0.004067
     27          6           0       -5.526448    0.363094   -0.001746
     28          6           0       -6.742898   -0.189954   -0.005702
     29          6           0       -6.598613   -1.518237   -0.013375
     30         16           0       -5.193909   -1.928614   -0.014957
     31          1           0        2.461542    2.403709    0.004822
     32          1           0       -2.461601   -2.403723   -0.016059
     33          1           0        0.437585    3.241595    0.917068
     34          1           0        0.438717    3.250299   -0.890496
     35          1           0       -2.033540    3.514822   -0.899202
     36          1           0       -2.035066    3.507100    0.924189
     37          1           0       -0.552964    5.526855    0.922396
     38          1           0       -0.549050    5.534475   -0.875799
     39          1           0       -2.235509    7.170474    0.027249
     40          1           0       -3.066047    5.858892   -0.882284
     41          1           0       -3.070749    5.850189    0.919703
     42          1           0       -0.453326   -3.248206    0.881071
     43          1           0       -0.422466   -3.244309   -0.926155
     44          1           0        2.048756   -3.518117   -0.890022
     45          1           0        2.019885   -3.503724    0.933060
     46          1           0        0.535746   -5.524301    0.910838
     47          1           0        0.566372   -5.537174   -0.887183
     48          1           0        2.235077   -7.170298    0.052793
     49          1           0        3.083959   -5.860629   -0.842608
     50          1           0        3.052068   -5.848148    0.959092
     51          1           0        5.370068   -1.451224   -0.020703
     52          1           0        7.697278   -0.353573   -0.022804
     53          1           0        7.432279    2.233655   -0.009932
     54          1           0       -5.370053    1.451231    0.004842
     55          1           0       -7.697357    0.353526   -0.003073
     56          1           0       -7.432255   -2.233620   -0.018182
 ---------------------------------------------------------------------
 Rotational constants (GHZ):           0.1650930           0.0767632           0.0525438
 Leave Link  202 at Mon Jul 12 14:46:47 2021, MaxMem=  5368709120 cpu:               0.2 elap:               0.0
 (Enter /home/zc/g16/l301.exe)
 Standard basis: def2SVP (5D, 7F)
 Ernie: Thresh=  0.10000D-02 Tol=  0.10000D-05 Strict=F.
 There are   596 symmetry adapted cartesian basis functions of A   symmetry.
 There are   566 symmetry adapted basis functions of A   symmetry.
   566 basis functions,   980 primitive gaussians,   596 cartesian basis functions
   123 alpha electrons      123 beta electrons
       nuclear repulsion energy      3574.2600850609 Hartrees.
 IExCor=  402 DFT=T Ex+Corr=B3LYP ExCW=0 ScaHFX=  0.200000
 ScaDFX=  0.800000  0.720000  1.000000  0.810000 ScalE2=  1.000000  1.000000
 IRadAn=      5 IRanWt=     -1 IRanGd=            0 ICorTp=0 IEmpDi=141
 NAtoms=   56 NActive=   56 NUniq=   56 SFac= 1.00D+00 NAtFMM=   60 NAOKFM=F Big=F
 Integral buffers will be    131072 words long.
 Raffenetti 2 integral format.
 Two-electron integral symmetry is turned on.
 R6Disp:  Grimme-D3(BJ) Dispersion energy=       -0.1378528466 Hartrees.
 Nuclear repulsion after empirical dispersion term =     3574.1222322142 Hartrees.
 ------------------------------------------------------------------------------
 Polarizable Continuum Model (PCM)
 =================================
 Model                : PCM.
 Atomic radii         : UFF (Universal Force Field).
 Polarization charges : Total charges.
 Charge compensation  : None.
 Solution method      : On-the-fly selection.
 Cavity type          : Scaled VdW (van der Waals Surface) (Alpha=1.100).
 Cavity algorithm     : GePol (No added spheres)
                        Default sphere list used, NSphG=   56.
                        Lebedev-Laikov grids with approx.  5.0 points / Ang**2.
                        Smoothing algorithm: York/Karplus (Gamma=1.0000).
                        Polarization charges: spherical gaussians, with
                                              point-specific exponents (IZeta= 3).
                        Self-potential: point-specific (ISelfS= 7).
                        Self-field    : sphere-specific E.n sum rule (ISelfD= 2).
 1st derivatives      : Analytical E(r).r(x)/FMM algorithm (CHGder, D1EAlg=3).
                        Cavity 1st derivative terms included.
 Solvent              : DiPhenylEther, Eps=   3.730000 Eps(inf)=   2.492294
 ------------------------------------------------------------------------------
 GePol: Number of generator spheres                  =      56
 GePol: Total number of spheres                      =      56
 GePol: Number of exposed spheres                    =      56 (100.00%)
 GePol: Number of points                             =    4146
 GePol: Average weight of points                     =       0.13
 GePol: Minimum weight of points                     =   0.10D-10
 GePol: Maximum weight of points                     =    0.20577
 GePol: Number of points with low weight             =     294
 GePol: Fraction of low-weight points (<1% of avg)   =       7.09%
 GePol: Cavity surface area                          =    524.528 Ang**2
 GePol: Cavity volume                                =    589.016 Ang**3
 Leave Link  301 at Mon Jul 12 14:46:47 2021, MaxMem=  5368709120 cpu:               2.5 elap:               0.1
 (Enter /home/zc/g16/l302.exe)
 NPDir=0 NMtPBC=     1 NCelOv=     1 NCel=       1 NClECP=     1 NCelD=      1
         NCelK=      1 NCelE2=     1 NClLst=     1 CellRange=     0.0.
 One-electron integrals computed using PRISM.
 One-electron integral symmetry used in STVInt
   1 Symmetry operations used in ECPInt.
 ECPInt:  NShTT=   35511 NPrTT=  132863 LenC2=   28132 LenP2D=   67905.
 LDataN:  DoStor=T MaxTD1= 4 Len=   56
 NBasis=   566 RedAO= T EigKep=  9.39D-05  NBF=   566
 NBsUse=   566 1.00D-06 EigRej= -1.00D+00 NBFU=   566
 Precomputing XC quadrature grid using
 IXCGrd= 4 IRadAn=           5 IRanWt=          -1 IRanGd=           0 AccXCQ= 0.00D+00.
 Generated NRdTot=       0 NPtTot=           0 NUsed=           0 NTot=          32
 NSgBfM=   571   571   571   571   571 MxSgAt=    56 MxSgA2=    56.
 Leave Link  302 at Mon Jul 12 14:46:48 2021, MaxMem=  5368709120 cpu:              40.5 elap:               1.0
 (Enter /home/zc/g16/l303.exe)
 DipDrv:  MaxL=1.
 Leave Link  303 at Mon Jul 12 14:46:48 2021, MaxMem=  5368709120 cpu:               3.7 elap:               0.1
 (Enter /home/zc/g16/l401.exe)
 ExpMin= 1.22D-01 ExpMax= 9.18D+03 ExpMxC= 1.38D+03 IAcc=3 IRadAn=         5 AccDes= 0.00D+00
 Harris functional with IExCor=  402 and IRadAn=       5 diagonalized for initial guess.
 HarFok:  IExCor=  402 AccDes= 0.00D+00 IRadAn=         5 IDoV= 1 UseB2=F ITyADJ=14
 ICtDFT=  3500011 ScaDFX=  1.000000  1.000000  1.000000  1.000000
 FoFCou: FMM=F IPFlag=           0 FMFlag=      100000 FMFlg1=           0
         NFxFlg=           0 DoJE=T BraDBF=F KetDBF=T FulRan=T
         wScrn=  0.000000 ICntrl=       500 IOpCl=  0 I1Cent=   200000004 NGrid=           0
         NMat0=    1 NMatS0=      1 NMatT0=    0 NMatD0=    1 NMtDS0=    0 NMtDT0=    0
 Petite list used in FoFCou.
 Harris En= -2597.64014819319    
 JPrj=0 DoOrth=F DoCkMO=F.
 Leave Link  401 at Mon Jul 12 14:46:51 2021, MaxMem=  5368709120 cpu:              84.8 elap:               2.2
 (Enter /home/zc/g16/l502.exe)
 Integral symmetry usage will be decided dynamically.
 Closed shell SCF:
 Using DIIS extrapolation, IDIIS=  1040.
 NGot=  5368709120 LenX=  5367968532 LenY=  5367612720
 Requested convergence on RMS density matrix=1.00D-08 within 128 cycles.
 Requested convergence on MAX density matrix=1.00D-06.
 Requested convergence on             energy=1.00D-06.
 No special actions if energy rises.
 Fock matrices will be formed incrementally for  20 cycles.

 Cycle   1  Pass 1  IDiag  1:
 FoFJK:  IHMeth= 1 ICntrl=       0 DoSepK=F KAlg= 0 I1Cent=           0 FoldK=F
 IRaf= 690000000 NMat=       1 IRICut=       1 DoRegI=T DoRafI=F ISym2E= 0 IDoP0=0 IntGTp=1.
 FoFCou: FMM=F IPFlag=           0 FMFlag=      100000 FMFlg1=           0
         NFxFlg=           0 DoJE=F BraDBF=F KetDBF=F FulRan=T
         wScrn=  0.000000 ICntrl=         0 IOpCl=  0 I1Cent=           0 NGrid=           0
         NMat0=    1 NMatS0=      1 NMatT0=    0 NMatD0=    1 NMtDS0=    0 NMtDT0=    0
 Symmetry not used in FoFCou.
 Inv3:  Mode=1 IEnd=    51567948.
 Iteration    1 A*A^-1 deviation from unit magnitude is 3.77D-15 for    478.
 Iteration    1 A*A^-1 deviation from orthogonality  is 2.00D-15 for   2916   1213.
 Iteration    1 A^-1*A deviation from unit magnitude is 3.55D-15 for    478.
 Iteration    1 A^-1*A deviation from orthogonality  is 2.11D-15 for   3305     56.
 E= -2596.46715215898    
 DIIS: error= 4.69D-02 at cycle   1 NSaved=   1.
 NSaved= 1 IEnMin= 1 EnMin= -2596.46715215898     IErMin= 1 ErrMin= 4.69D-02
 ErrMax= 4.69D-02  0.00D+00 EMaxC= 1.00D-01 BMatC= 1.00D+00 BMatP= 1.00D+00
 IDIUse=3 WtCom= 5.31D-01 WtEn= 4.69D-01
 Coeff-Com:  0.100D+01
 Coeff-En:   0.100D+01
 Coeff:      0.100D+01
 Gap=     0.154 Goal=   None    Shift=    0.000
 GapD=    0.154 DampG=1.000 DampE=0.500 DampFc=0.5000 IDamp=-1.
 Damping current iteration by 5.00D-01
 RMSDP=6.42D-03 MaxDP=2.25D-01              OVMax= 3.37D-01

 Cycle   2  Pass 1  IDiag  1:
 RMSU=  3.03D-03    CP:  9.42D-01
 E= -2596.93825980359     Delta-E=       -0.471107644601 Rises=F Damp=T
 DIIS: error= 8.98D-03 at cycle   2 NSaved=   2.
 NSaved= 2 IEnMin= 2 EnMin= -2596.93825980359     IErMin= 2 ErrMin= 8.98D-03
 ErrMax= 8.98D-03  0.00D+00 EMaxC= 1.00D-01 BMatC= 5.14D-02 BMatP= 1.00D+00
 IDIUse=3 WtCom= 9.10D-01 WtEn= 8.98D-02
 Coeff-Com:  0.112D+00 0.888D+00
 Coeff-En:   0.197D+00 0.803D+00
 Coeff:      0.120D+00 0.880D+00
 Gap=     0.128 Goal=   None    Shift=    0.000
 RMSDP=2.59D-03 MaxDP=1.46D-01 DE=-4.71D-01 OVMax= 2.61D-01

 Cycle   3  Pass 1  IDiag  1:
 RMSU=  2.44D-03    CP:  8.96D-01  9.46D-01
 E= -2597.59935995189     Delta-E=       -0.661100148307 Rises=F Damp=F
 DIIS: error= 6.61D-03 at cycle   3 NSaved=   3.
 NSaved= 3 IEnMin= 3 EnMin= -2597.59935995189     IErMin= 3 ErrMin= 6.61D-03
 ErrMax= 6.61D-03  0.00D+00 EMaxC= 1.00D-01 BMatC= 1.89D-02 BMatP= 5.14D-02
 IDIUse=3 WtCom= 9.34D-01 WtEn= 6.61D-02
 Coeff-Com:  0.282D-01 0.363D+00 0.609D+00
 Coeff-En:   0.000D+00 0.000D+00 0.100D+01
 Coeff:      0.263D-01 0.339D+00 0.635D+00
 Gap=     0.117 Goal=   None    Shift=    0.000
 RMSDP=6.26D-04 MaxDP=3.27D-02 DE=-6.61D-01 OVMax= 5.54D-02

 Cycle   4  Pass 1  IDiag  1:
 RMSU=  4.98D-04    CP:  8.99D-01  1.00D+00  8.62D-01
 E= -2597.61178088371     Delta-E=       -0.012420931818 Rises=F Damp=F
 DIIS: error= 4.17D-03 at cycle   4 NSaved=   4.
 NSaved= 4 IEnMin= 4 EnMin= -2597.61178088371     IErMin= 4 ErrMin= 4.17D-03
 ErrMax= 4.17D-03  0.00D+00 EMaxC= 1.00D-01 BMatC= 7.14D-03 BMatP= 1.89D-02
 IDIUse=3 WtCom= 9.58D-01 WtEn= 4.17D-02
 Coeff-Com:  0.144D-02 0.688D-01 0.382D+00 0.547D+00
 Coeff-En:   0.000D+00 0.000D+00 0.287D+00 0.713D+00
 Coeff:      0.138D-02 0.660D-01 0.378D+00 0.554D+00
 Gap=     0.121 Goal=   None    Shift=    0.000
 RMSDP=2.58D-04 MaxDP=1.43D-02 DE=-1.24D-02 OVMax= 2.24D-02

 Cycle   5  Pass 1  IDiag  1:
 RMSU=  1.84D-04    CP:  8.97D-01  9.86D-01  8.89D-01  6.85D-01
 E= -2597.61851167767     Delta-E=       -0.006730793960 Rises=F Damp=F
 DIIS: error= 1.11D-03 at cycle   5 NSaved=   5.
 NSaved= 5 IEnMin= 5 EnMin= -2597.61851167767     IErMin= 5 ErrMin= 1.11D-03
 ErrMax= 1.11D-03  0.00D+00 EMaxC= 1.00D-01 BMatC= 4.38D-04 BMatP= 7.14D-03
 IDIUse=3 WtCom= 9.89D-01 WtEn= 1.11D-02
 Coeff-Com: -0.287D-03 0.969D-02 0.155D+00 0.294D+00 0.542D+00
 Coeff-En:   0.000D+00 0.000D+00 0.000D+00 0.000D+00 0.100D+01
 Coeff:     -0.283D-03 0.958D-02 0.153D+00 0.291D+00 0.547D+00
 Gap=     0.120 Goal=   None    Shift=    0.000
 RMSDP=7.76D-05 MaxDP=2.95D-03 DE=-6.73D-03 OVMax= 7.07D-03

 Cycle   6  Pass 1  IDiag  1:
 RMSU=  5.83D-05    CP:  8.97D-01  9.87D-01  8.88D-01  7.05D-01  7.28D-01
 E= -2597.61889077442     Delta-E=       -0.000379096753 Rises=F Damp=F
 DIIS: error= 4.87D-04 at cycle   6 NSaved=   6.
 NSaved= 6 IEnMin= 6 EnMin= -2597.61889077442     IErMin= 6 ErrMin= 4.87D-04
 ErrMax= 4.87D-04  0.00D+00 EMaxC= 1.00D-01 BMatC= 7.73D-05 BMatP= 4.38D-04
 IDIUse=3 WtCom= 9.95D-01 WtEn= 4.87D-03
 Coeff-Com: -0.228D-04-0.349D-02 0.434D-01 0.104D+00 0.341D+00 0.515D+00
 Coeff-En:   0.000D+00 0.000D+00 0.000D+00 0.000D+00 0.155D+00 0.845D+00
 Coeff:     -0.227D-04-0.347D-02 0.432D-01 0.104D+00 0.340D+00 0.517D+00
 Gap=     0.120 Goal=   None    Shift=    0.000
 RMSDP=2.78D-05 MaxDP=1.19D-03 DE=-3.79D-04 OVMax= 1.90D-03

 Cycle   7  Pass 1  IDiag  1:
 RMSU=  1.15D-05    CP:  8.97D-01  9.86D-01  8.93D-01  7.00D-01  7.43D-01
                    CP:  6.12D-01
 E= -2597.61897231640     Delta-E=       -0.000081541979 Rises=F Damp=F
 DIIS: error= 5.80D-05 at cycle   7 NSaved=   7.
 NSaved= 7 IEnMin= 7 EnMin= -2597.61897231640     IErMin= 7 ErrMin= 5.80D-05
 ErrMax= 5.80D-05  0.00D+00 EMaxC= 1.00D-01 BMatC= 1.84D-06 BMatP= 7.73D-05
 IDIUse=1 WtCom= 1.00D+00 WtEn= 0.00D+00
 Coeff-Com:  0.143D-03-0.227D-02 0.126D-01 0.333D-01 0.129D+00 0.231D+00
 Coeff-Com:  0.597D+00
 Coeff:      0.143D-03-0.227D-02 0.126D-01 0.333D-01 0.129D+00 0.231D+00
 Coeff:      0.597D+00
 Gap=     0.121 Goal=   None    Shift=    0.000
 RMSDP=5.07D-06 MaxDP=2.59D-04 DE=-8.15D-05 OVMax= 4.94D-04

 Cycle   8  Pass 1  IDiag  1:
 RMSU=  3.84D-06    CP:  8.97D-01  9.86D-01  8.93D-01  7.02D-01  7.45D-01
                    CP:  6.15D-01  7.76D-01
 E= -2597.61897402307     Delta-E=       -0.000001706663 Rises=F Damp=F
 DIIS: error= 2.29D-05 at cycle   8 NSaved=   8.
 NSaved= 8 IEnMin= 8 EnMin= -2597.61897402307     IErMin= 8 ErrMin= 2.29D-05
 ErrMax= 2.29D-05  0.00D+00 EMaxC= 1.00D-01 BMatC= 2.83D-07 BMatP= 1.84D-06
 IDIUse=1 WtCom= 1.00D+00 WtEn= 0.00D+00
 Coeff-Com:  0.124D-03-0.826D-03 0.129D-02 0.415D-02 0.220D-01 0.486D-01
 Coeff-Com:  0.306D+00 0.619D+00
 Coeff:      0.124D-03-0.826D-03 0.129D-02 0.415D-02 0.220D-01 0.486D-01
 Coeff:      0.306D+00 0.619D+00
 Gap=     0.121 Goal=   None    Shift=    0.000
 RMSDP=1.45D-06 MaxDP=8.11D-05 DE=-1.71D-06 OVMax= 1.83D-04

 Cycle   9  Pass 1  IDiag  1:
 RMSU=  9.98D-07    CP:  8.97D-01  9.86D-01  8.93D-01  7.02D-01  7.46D-01
                    CP:  6.18D-01  8.27D-01  7.83D-01
 E= -2597.61897430825     Delta-E=       -0.000000285188 Rises=F Damp=F
 DIIS: error= 4.85D-06 at cycle   9 NSaved=   9.
 NSaved= 9 IEnMin= 9 EnMin= -2597.61897430825     IErMin= 9 ErrMin= 4.85D-06
 ErrMax= 4.85D-06  0.00D+00 EMaxC= 1.00D-01 BMatC= 2.15D-08 BMatP= 2.83D-07
 IDIUse=1 WtCom= 1.00D+00 WtEn= 0.00D+00
 Coeff-Com:  0.647D-04-0.287D-03-0.208D-03-0.239D-03 0.256D-02 0.912D-02
 Coeff-Com:  0.116D+00 0.309D+00 0.564D+00
 Coeff:      0.647D-04-0.287D-03-0.208D-03-0.239D-03 0.256D-02 0.912D-02
 Coeff:      0.116D+00 0.309D+00 0.564D+00
 Gap=     0.121 Goal=   None    Shift=    0.000
 RMSDP=5.38D-07 MaxDP=3.09D-05 DE=-2.85D-07 OVMax= 4.56D-05

 Cycle  10  Pass 1  IDiag  1:
 RMSU=  4.08D-07    CP:  8.97D-01  9.86D-01  8.93D-01  7.02D-01  7.46D-01
                    CP:  6.18D-01  8.30D-01  8.16D-01  7.46D-01
 E= -2597.61897432878     Delta-E=       -0.000000020527 Rises=F Damp=F
 DIIS: error= 2.98D-06 at cycle  10 NSaved=  10.
 NSaved=10 IEnMin=10 EnMin= -2597.61897432878     IErMin=10 ErrMin= 2.98D-06
 ErrMax= 2.98D-06  0.00D+00 EMaxC= 1.00D-01 BMatC= 2.78D-09 BMatP= 2.15D-08
 IDIUse=1 WtCom= 1.00D+00 WtEn= 0.00D+00
 Coeff-Com:  0.161D-04-0.202D-04-0.275D-03-0.753D-03-0.214D-02-0.339D-02
 Coeff-Com:  0.743D-02 0.552D-01 0.294D+00 0.650D+00
 Coeff:      0.161D-04-0.202D-04-0.275D-03-0.753D-03-0.214D-02-0.339D-02
 Coeff:      0.743D-02 0.552D-01 0.294D+00 0.650D+00
 Gap=     0.121 Goal=   None    Shift=    0.000
 RMSDP=1.74D-07 MaxDP=7.83D-06 DE=-2.05D-08 OVMax= 1.82D-05

 Cycle  11  Pass 1  IDiag  1:
 RMSU=  1.05D-07    CP:  8.97D-01  9.86D-01  8.93D-01  7.02D-01  7.46D-01
                    CP:  6.18D-01  8.35D-01  8.20D-01  8.02D-01  7.51D-01
 E= -2597.61897433163     Delta-E=       -0.000000002848 Rises=F Damp=F
 DIIS: error= 4.05D-07 at cycle  11 NSaved=  11.
 NSaved=11 IEnMin=11 EnMin= -2597.61897433163     IErMin=11 ErrMin= 4.05D-07
 ErrMax= 4.05D-07  0.00D+00 EMaxC= 1.00D-01 BMatC= 1.31D-10 BMatP= 2.78D-09
 IDIUse=1 WtCom= 1.00D+00 WtEn= 0.00D+00
 Coeff-Com:  0.434D-05 0.589D-05-0.110D-03-0.324D-03-0.108D-02-0.201D-02
 Coeff-Com: -0.274D-02 0.881D-02 0.100D+00 0.287D+00 0.611D+00
 Coeff:      0.434D-05 0.589D-05-0.110D-03-0.324D-03-0.108D-02-0.201D-02
 Coeff:     -0.274D-02 0.881D-02 0.100D+00 0.287D+00 0.611D+00
 Gap=     0.121 Goal=   None    Shift=    0.000
 RMSDP=4.07D-08 MaxDP=1.56D-06 DE=-2.85D-09 OVMax= 2.80D-06

 Cycle  12  Pass 1  IDiag  1:
 RMSU=  3.16D-08    CP:  8.97D-01  9.86D-01  8.93D-01  7.02D-01  7.46D-01
                    CP:  6.18D-01  8.35D-01  8.23D-01  8.08D-01  7.75D-01
                    CP:  8.23D-01
 E= -2597.61897433181     Delta-E=       -0.000000000185 Rises=F Damp=F
 DIIS: error= 1.97D-07 at cycle  12 NSaved=  12.
 NSaved=12 IEnMin=12 EnMin= -2597.61897433181     IErMin=12 ErrMin= 1.97D-07
 ErrMax= 1.97D-07  0.00D+00 EMaxC= 1.00D-01 BMatC= 1.88D-11 BMatP= 1.31D-10
 IDIUse=1 WtCom= 1.00D+00 WtEn= 0.00D+00
 Coeff-Com:  0.695D-06 0.389D-05-0.183D-04-0.639D-04-0.238D-03-0.535D-03
 Coeff-Com: -0.180D-02-0.973D-03 0.178D-01 0.704D-01 0.306D+00 0.610D+00
 Coeff:      0.695D-06 0.389D-05-0.183D-04-0.639D-04-0.238D-03-0.535D-03
 Coeff:     -0.180D-02-0.973D-03 0.178D-01 0.704D-01 0.306D+00 0.610D+00
 Gap=     0.121 Goal=   None    Shift=    0.000
 RMSDP=1.57D-08 MaxDP=5.78D-07 DE=-1.85D-10 OVMax= 1.17D-06

 Cycle  13  Pass 1  IDiag  1:
 RMSU=  1.07D-08    CP:  8.97D-01  9.86D-01  8.93D-01  7.02D-01  7.46D-01
                    CP:  6.18D-01  8.35D-01  8.23D-01  8.12D-01  7.73D-01
                    CP:  8.57D-01  7.33D-01
 E= -2597.61897433182     Delta-E=       -0.000000000004 Rises=F Damp=F
 DIIS: error= 5.10D-08 at cycle  13 NSaved=  13.
 NSaved=13 IEnMin=13 EnMin= -2597.61897433182     IErMin=13 ErrMin= 5.10D-08
 ErrMax= 5.10D-08  0.00D+00 EMaxC= 1.00D-01 BMatC= 1.95D-12 BMatP= 1.88D-11
 IDIUse=1 WtCom= 1.00D+00 WtEn= 0.00D+00
 Coeff-Com: -0.103D-06 0.132D-05 0.460D-06-0.237D-05-0.206D-04-0.941D-04
 Coeff-Com: -0.795D-03-0.175D-02-0.178D-02 0.545D-02 0.898D-01 0.308D+00
 Coeff-Com:  0.602D+00
 Coeff:     -0.103D-06 0.132D-05 0.460D-06-0.237D-05-0.206D-04-0.941D-04
 Coeff:     -0.795D-03-0.175D-02-0.178D-02 0.545D-02 0.898D-01 0.308D+00
 Coeff:      0.602D+00
 Gap=     0.121 Goal=   None    Shift=    0.000
 RMSDP=5.95D-09 MaxDP=4.53D-07 DE=-4.09D-12 OVMax= 3.48D-07

 Error on total polarization charges =  0.01574
 SCF Done:  E(RB3LYP) =  -2597.61897433     A.U. after   13 cycles
            NFock= 13  Conv=0.60D-08     -V/T= 2.0025
 KE= 2.591014026221D+03 PE=-1.326390505256D+04 EE= 4.501149819794D+03
 Leave Link  502 at Mon Jul 12 14:48:11 2021, MaxMem=  5368709120 cpu:            3116.3 elap:              80.0
 (Enter /home/zc/g16/l601.exe)
 Copying SCF densities to generalized density rwf, IOpCl= 0 IROHF=0.

 **********************************************************************

            Population analysis using the SCF density.

 **********************************************************************

 Orbital symmetries:
       Occupied  (A) (A) (A) (A) (A) (A) (A) (A) (A) (A) (A) (A)
                 (A) (A) (A) (A) (A) (A) (A) (A) (A) (A) (A) (A)
                 (A) (A) (A) (A) (A) (A) (A) (A) (A) (A) (A) (A)
                 (A) (A) (A) (A) (A) (A) (A) (A) (A) (A) (A) (A)
                 (A) (A) (A) (A) (A) (A) (A) (A) (A) (A) (A) (A)
                 (A) (A) (A) (A) (A) (A) (A) (A) (A) (A) (A) (A)
                 (A) (A) (A) (A) (A) (A) (A) (A) (A) (A) (A) (A)
                 (A) (A) (A) (A) (A) (A) (A) (A) (A) (A) (A) (A)
                 (A) (A) (A) (A) (A) (A) (A) (A) (A) (A) (A) (A)
                 (A) (A) (A) (A) (A) (A) (A) (A) (A) (A) (A) (A)
                 (A) (A) (A)
       Virtual   (A) (A) (A) (A) (A) (A) (A) (A) (A) (A) (A) (A)
                 (A) (A) (A) (A) (A) (A) (A) (A) (A) (A) (A) (A)
                 (A) (A) (A) (A) (A) (A) (A) (A) (A) (A) (A) (A)
                 (A) (A) (A) (A) (A) (A) (A) (A) (A) (A) (A) (A)
                 (A) (A) (A) (A) (A) (A) (A) (A) (A) (A) (A) (A)
                 (A) (A) (A) (A) (A) (A) (A) (A) (A) (A) (A) (A)
                 (A) (A) (A) (A) (A) (A) (A) (A) (A) (A) (A) (A)
                 (A) (A) (A) (A) (A) (A) (A) (A) (A) (A) (A) (A)
                 (A) (A) (A) (A) (A) (A) (A) (A) (A) (A) (A) (A)
                 (A) (A) (A) (A) (A) (A) (A) (A) (A) (A) (A) (A)
                 (A) (A) (A) (A) (A) (A) (A) (A) (A) (A) (A) (A)
                 (A) (A) (A) (A) (A) (A) (A) (A) (A) (A) (A) (A)
                 (A) (A) (A) (A) (A) (A) (A) (A) (A) (A) (A) (A)
                 (A) (A) (A) (A) (A) (A) (A) (A) (A) (A) (A) (A)
                 (A) (A) (A) (A) (A) (A) (A) (A) (A) (A) (A) (A)
                 (A) (A) (A) (A) (A) (A) (A) (A) (A) (A) (A) (A)
                 (A) (A) (A) (A) (A) (A) (A) (A) (A) (A) (A) (A)
                 (A) (A) (A) (A) (A) (A) (A) (A) (A) (A) (A) (A)
                 (A) (A) (A) (A) (A) (A) (A) (A) (A) (A) (A) (A)
                 (A) (A) (A) (A) (A) (A) (A) (A) (A) (A) (A) (A)
                 (A) (A) (A) (A) (A) (A) (A) (A) (A) (A) (A) (A)
                 (A) (A) (A) (A) (A) (A) (A) (A) (A) (A) (A) (A)
                 (A) (A) (A) (A) (A) (A) (A) (A) (A) (A) (A) (A)
                 (A) (A) (A) (A) (A) (A) (A) (A) (A) (A) (A) (A)
                 (A) (A) (A) (A) (A) (A) (A) (A) (A) (A) (A) (A)
                 (A) (A) (A) (A) (A) (A) (A) (A) (A) (A) (A) (A)
                 (A) (A) (A) (A) (A) (A) (A) (A) (A) (A) (A) (A)
                 (A) (A) (A) (A) (A) (A) (A) (A) (A) (A) (A) (A)
                 (A) (A) (A) (A) (A) (A) (A) (A) (A) (A) (A) (A)
                 (A) (A) (A) (A) (A) (A) (A) (A) (A) (A) (A) (A)
                 (A) (A) (A) (A) (A) (A) (A) (A) (A) (A) (A) (A)
                 (A) (A) (A) (A) (A) (A) (A) (A) (A) (A) (A) (A)
                 (A) (A) (A) (A) (A) (A) (A) (A) (A) (A) (A) (A)
                 (A) (A) (A) (A) (A) (A) (A) (A) (A) (A) (A) (A)
                 (A) (A) (A) (A) (A) (A) (A) (A) (A) (A) (A) (A)
                 (A) (A) (A) (A) (A) (A) (A) (A) (A) (A) (A) (A)
                 (A) (A) (A) (A) (A) (A) (A) (A) (A) (A) (A)
 The electronic state is 1-A.
 Alpha  occ. eigenvalues --  -88.85827 -88.85827 -88.83994 -88.83993 -10.18971
 Alpha  occ. eigenvalues --  -10.18968 -10.18388 -10.18387 -10.18324 -10.18323
 Alpha  occ. eigenvalues --  -10.18275 -10.18274 -10.18153 -10.18152 -10.17978
 Alpha  occ. eigenvalues --  -10.17977 -10.17970 -10.17969 -10.17748 -10.17737
 Alpha  occ. eigenvalues --  -10.17427 -10.17426 -10.17338 -10.17337 -10.17211
 Alpha  occ. eigenvalues --  -10.17197 -10.16028 -10.16025 -10.15952 -10.15942
 Alpha  occ. eigenvalues --   -7.96953  -7.96953  -7.95260  -7.95259  -5.93623
 Alpha  occ. eigenvalues --   -5.93622  -5.93177  -5.93177  -5.93059  -5.93058
 Alpha  occ. eigenvalues --   -5.91977  -5.91976  -5.91488  -5.91487  -5.91258
 Alpha  occ. eigenvalues --   -5.91257  -0.99177  -0.98682  -0.97134  -0.96561
 Alpha  occ. eigenvalues --   -0.85868  -0.82380  -0.79999  -0.78905  -0.78331
 Alpha  occ. eigenvalues --   -0.77781  -0.76588  -0.76343  -0.74811  -0.72245
 Alpha  occ. eigenvalues --   -0.72220  -0.70759  -0.67951  -0.66081  -0.63601
 Alpha  occ. eigenvalues --   -0.61355  -0.61302  -0.58884  -0.58563  -0.57533
 Alpha  occ. eigenvalues --   -0.57128  -0.55917  -0.54556  -0.54463  -0.54056
 Alpha  occ. eigenvalues --   -0.53756  -0.52468  -0.49468  -0.48572  -0.47377
 Alpha  occ. eigenvalues --   -0.46674  -0.46570  -0.46486  -0.46208  -0.44325
 Alpha  occ. eigenvalues --   -0.43223  -0.42802  -0.42451  -0.42436  -0.42328
 Alpha  occ. eigenvalues --   -0.41919  -0.41154  -0.41140  -0.41121  -0.40300
 Alpha  occ. eigenvalues --   -0.39481  -0.39457  -0.38683  -0.38671  -0.37682
 Alpha  occ. eigenvalues --   -0.36328  -0.36260  -0.36041  -0.35249  -0.34946
 Alpha  occ. eigenvalues --   -0.34655  -0.34074  -0.33510  -0.33480  -0.33180
 Alpha  occ. eigenvalues --   -0.32863  -0.32681  -0.32540  -0.30726  -0.30604
 Alpha  occ. eigenvalues --   -0.29875  -0.28489  -0.27102  -0.26557  -0.26100
 Alpha  occ. eigenvalues --   -0.23118  -0.20754  -0.16872
 Alpha virt. eigenvalues --   -0.04822  -0.00455   0.01796   0.03995   0.05352
 Alpha virt. eigenvalues --    0.05425   0.05456   0.07115   0.07313   0.07705
 Alpha virt. eigenvalues --    0.07791   0.08133   0.08507   0.09033   0.09788
 Alpha virt. eigenvalues --    0.09871   0.09917   0.10138   0.10143   0.10633
 Alpha virt. eigenvalues --    0.10862   0.11221   0.12146   0.12383   0.13244
 Alpha virt. eigenvalues --    0.13506   0.14401   0.14680   0.14800   0.14932
 Alpha virt. eigenvalues --    0.15108   0.15455   0.16110   0.16532   0.16552
 Alpha virt. eigenvalues --    0.16599   0.16875   0.18268   0.19301   0.19456
 Alpha virt. eigenvalues --    0.20057   0.21043   0.21407   0.21481   0.21970
 Alpha virt. eigenvalues --    0.22254   0.23226   0.23317   0.24384   0.25697
 Alpha virt. eigenvalues --    0.25815   0.26440   0.26738   0.27782   0.29215
 Alpha virt. eigenvalues --    0.31244   0.31481   0.31554   0.31857   0.32479
 Alpha virt. eigenvalues --    0.34079   0.35347   0.35427   0.35873   0.36259
 Alpha virt. eigenvalues --    0.36720   0.36870   0.37938   0.37960   0.39674
 Alpha virt. eigenvalues --    0.40944   0.41208   0.41843   0.42143   0.42301
 Alpha virt. eigenvalues --    0.42316   0.43464   0.43652   0.43731   0.43852
 Alpha virt. eigenvalues --    0.43941   0.44733   0.45232   0.45749   0.45849
 Alpha virt. eigenvalues --    0.46201   0.46905   0.47227   0.47927   0.47944
 Alpha virt. eigenvalues --    0.48105   0.48280   0.48861   0.49988   0.50124
 Alpha virt. eigenvalues --    0.50138   0.51051   0.51298   0.51432   0.52092
 Alpha virt. eigenvalues --    0.52276   0.53877   0.54044   0.54316   0.54537
 Alpha virt. eigenvalues --    0.54734   0.54773   0.55931   0.56334   0.58154
 Alpha virt. eigenvalues --    0.59486   0.59580   0.60237   0.60555   0.60599
 Alpha virt. eigenvalues --    0.60903   0.62149   0.62490   0.62579   0.62580
 Alpha virt. eigenvalues --    0.62737   0.63115   0.63775   0.63971   0.64318
 Alpha virt. eigenvalues --    0.64553   0.64976   0.65358   0.65376   0.65786
 Alpha virt. eigenvalues --    0.66335   0.66358   0.66727   0.66793   0.67271
 Alpha virt. eigenvalues --    0.67298   0.67519   0.67810   0.68130   0.68708
 Alpha virt. eigenvalues --    0.68841   0.69305   0.69425   0.69598   0.69747
 Alpha virt. eigenvalues --    0.69870   0.69910   0.70153   0.70686   0.71217
 Alpha virt. eigenvalues --    0.71443   0.71813   0.72259   0.72510   0.72882
 Alpha virt. eigenvalues --    0.73144   0.73483   0.73620   0.73714   0.74341
 Alpha virt. eigenvalues --    0.74899   0.75496   0.76307   0.76807   0.78633
 Alpha virt. eigenvalues --    0.78785   0.79972   0.79981   0.82240   0.82404
 Alpha virt. eigenvalues --    0.82962   0.83464   0.84128   0.84699   0.85822
 Alpha virt. eigenvalues --    0.86177   0.86351   0.86827   0.87398   0.87625
 Alpha virt. eigenvalues --    0.88209   0.89643   0.90249   0.91367   0.91823
 Alpha virt. eigenvalues --    0.93315   0.93967   0.96274   0.96352   0.97296
 Alpha virt. eigenvalues --    0.97991   0.99746   0.99962   1.01562   1.01960
 Alpha virt. eigenvalues --    1.02205   1.02755   1.04466   1.04803   1.07615
 Alpha virt. eigenvalues --    1.09438   1.09769   1.10285   1.11801   1.13126
 Alpha virt. eigenvalues --    1.14147   1.14525   1.14748   1.14969   1.16056
 Alpha virt. eigenvalues --    1.16848   1.17607   1.17661   1.18197   1.19061
 Alpha virt. eigenvalues --    1.20443   1.20531   1.21503   1.22352   1.23013
 Alpha virt. eigenvalues --    1.23664   1.24562   1.24640   1.26419   1.26840
 Alpha virt. eigenvalues --    1.28171   1.28806   1.28980   1.29136   1.30264
 Alpha virt. eigenvalues --    1.30329   1.31018   1.31801   1.32929   1.32939
 Alpha virt. eigenvalues --    1.34309   1.34344   1.35815   1.36255   1.36557
 Alpha virt. eigenvalues --    1.36967   1.37762   1.37836   1.37945   1.38057
 Alpha virt. eigenvalues --    1.41085   1.42165   1.43005   1.44146   1.45432
 Alpha virt. eigenvalues --    1.47378   1.48439   1.48987   1.49208   1.53136
 Alpha virt. eigenvalues --    1.53147   1.53162   1.54015   1.55522   1.55624
 Alpha virt. eigenvalues --    1.58880   1.59322   1.60111   1.60444   1.63412
 Alpha virt. eigenvalues --    1.64738   1.67501   1.70470   1.70804   1.70829
 Alpha virt. eigenvalues --    1.72329   1.72449   1.72603   1.72980   1.73792
 Alpha virt. eigenvalues --    1.74116   1.74591   1.75053   1.75741   1.76747
 Alpha virt. eigenvalues --    1.76922   1.77532   1.77676   1.77685   1.77918
 Alpha virt. eigenvalues --    1.78726   1.78895   1.78993   1.80449   1.80461
 Alpha virt. eigenvalues --    1.81121   1.81609   1.81626   1.82102   1.82531
 Alpha virt. eigenvalues --    1.82663   1.82704   1.84541   1.84938   1.85018
 Alpha virt. eigenvalues --    1.85154   1.86235   1.86268   1.87141   1.87902
 Alpha virt. eigenvalues --    1.89808   1.89873   1.90322   1.90340   1.90928
 Alpha virt. eigenvalues --    1.91623   1.92097   1.93141   1.93198   1.93638
 Alpha virt. eigenvalues --    1.94348   1.94688   1.94965   1.95475   1.97522
 Alpha virt. eigenvalues --    1.98319   1.98363   2.00444   2.00872   2.02434
 Alpha virt. eigenvalues --    2.02499   2.03506   2.03567   2.04514   2.05417
 Alpha virt. eigenvalues --    2.06376   2.06890   2.06948   2.07328   2.08327
 Alpha virt. eigenvalues --    2.09325   2.10772   2.11400   2.11720   2.12455
 Alpha virt. eigenvalues --    2.13976   2.14585   2.16329   2.17072   2.17743
 Alpha virt. eigenvalues --    2.18867   2.19006   2.19136   2.19558   2.21821
 Alpha virt. eigenvalues --    2.23388   2.25602   2.26708   2.26961   2.28519
 Alpha virt. eigenvalues --    2.29028   2.30153   2.32312   2.32951   2.33791
 Alpha virt. eigenvalues --    2.34902   2.36059   2.37252   2.37329   2.38431
 Alpha virt. eigenvalues --    2.38529   2.38605   2.40269   2.42231   2.42339
 Alpha virt. eigenvalues --    2.42366   2.45291   2.45314   2.47255   2.48117
 Alpha virt. eigenvalues --    2.48352   2.49032   2.49455   2.50731   2.51554
 Alpha virt. eigenvalues --    2.52016   2.54041   2.54251   2.55375   2.55479
 Alpha virt. eigenvalues --    2.55921   2.56139   2.56744   2.57393   2.58074
 Alpha virt. eigenvalues --    2.59113   2.60477   2.60726   2.62480   2.63069
 Alpha virt. eigenvalues --    2.65176   2.66108   2.66393   2.66619   2.68583
 Alpha virt. eigenvalues --    2.69464   2.71768   2.72185   2.72765   2.73042
 Alpha virt. eigenvalues --    2.74046   2.77605   2.78132   2.80001   2.81679
 Alpha virt. eigenvalues --    2.83714   2.84217   2.84592   2.85523   2.85536
 Alpha virt. eigenvalues --    2.88858   2.89693   2.91489   2.93319   2.94129
 Alpha virt. eigenvalues --    2.94582   2.94811   2.95969   3.01127   3.01161
 Alpha virt. eigenvalues --    3.03889   3.03947   3.04004   3.05101   3.06101
 Alpha virt. eigenvalues --    3.06163   3.06300   3.09111   3.10257   3.11601
 Alpha virt. eigenvalues --    3.22800   3.25669   3.32636   3.40808   3.54193
 Alpha virt. eigenvalues --    3.56404   3.57241   3.70910
          Condensed to atoms (all electrons):
 Mulliken charges:
               1
     1  C    0.155887
     2  C   -0.039388
     3  C   -0.079009
     4  C    0.155818
     5  C   -0.039487
     6  C   -0.078932
     7  C   -0.231635
     8  C    0.178939
     9  S   -0.050434
    10  C   -0.231614
    11  C    0.179023
    12  S   -0.050438
    13  C    0.037716
    14  C   -0.008524
    15  C   -0.014448
    16  C    0.011513
    17  C    0.037820
    18  C   -0.008551
    19  C   -0.014610
    20  C    0.011562
    21  C   -0.041931
    22  C   -0.041977
    23  C   -0.060198
    24  C    0.010111
    25  C   -0.063095
    26  S    0.158935
    27  C   -0.060135
    28  C    0.010139
    29  C   -0.063119
    30  S    0.158878
    31  H   -0.030757
    32  H   -0.030780
    33  H    0.013066
    34  H    0.013152
    35  H    0.008108
    36  H    0.008192
    37  H    0.001364
    38  H    0.001340
    39  H    0.012052
    40  H    0.010897
    41  H    0.010859
    42  H    0.013188
    43  H    0.013023
    44  H    0.008517
    45  H    0.007806
    46  H    0.001312
    47  H    0.001430
    48  H    0.012048
    49  H    0.010827
    50  H    0.010929
    51  H   -0.014712
    52  H   -0.018979
    53  H    0.020999
    54  H   -0.014726
    55  H   -0.018971
    56  H    0.021000
 Sum of Mulliken charges =  -0.00000
 Mulliken charges with hydrogens summed into heavy atoms:
               1
     1  C    0.155887
     2  C   -0.039388
     3  C   -0.079009
     4  C    0.155818
     5  C   -0.039487
     6  C   -0.078932
     7  C   -0.262391
     8  C    0.178939
     9  S   -0.050434
    10  C   -0.262394
    11  C    0.179023
    12  S   -0.050438
    13  C    0.063933
    14  C    0.007776
    15  C   -0.011744
    16  C    0.045321
    17  C    0.064031
    18  C    0.007772
    19  C   -0.011867
    20  C    0.045364
    21  C   -0.041931
    22  C   -0.041977
    23  C   -0.074910
    24  C   -0.008868
    25  C   -0.042096
    26  S    0.158935
    27  C   -0.074861
    28  C   -0.008832
    29  C   -0.042119
    30  S    0.158878
 Electronic spatial extent (au):  <R**2>=          19153.5022
 Charge=             -0.0000 electrons
 Dipole moment (field-independent basis, Debye):
    X=              0.0006    Y=              0.0004    Z=             -0.0017  Tot=              0.0018
 Quadrupole moment (field-independent basis, Debye-Ang):
   XX=           -181.3180   YY=           -193.1425   ZZ=           -207.5014
   XY=              5.9273   XZ=             -0.0218   YZ=              0.0648
 Traceless Quadrupole moment (field-independent basis, Debye-Ang):
   XX=             12.6693   YY=              0.8448   ZZ=            -13.5141
   XY=              5.9273   XZ=             -0.0218   YZ=              0.0648
 Octapole moment (field-independent basis, Debye-Ang**2):
  XXX=              0.0350  YYY=              0.0042  ZZZ=              0.1186  XYY=              0.0038
  XXY=              0.0079  XXZ=             -0.6343  XZZ=             -0.0013  YZZ=              0.0019
  YYZ=             -0.1689  XYZ=             -0.0186
 Hexadecapole moment (field-independent basis, Debye-Ang**3):
 XXXX=         -15199.7433 YYYY=          -8986.0386 ZZZZ=           -287.0838 XXXY=            472.8069
 XXXZ=             -1.1174 YYYX=            166.1328 YYYZ=              0.8846 ZZZX=              0.4429
 ZZZY=              0.0822 XXYY=          -4165.2804 XXZZ=          -3068.8532 YYZZ=          -1538.0818
 XXYZ=              2.1640 YYXZ=             -0.4294 ZZXY=             -2.0882
 N-N= 3.574122232214D+03 E-N=-1.326390502527D+04  KE= 2.591014026221D+03
 No NMR shielding tensors so no spin-rotation constants.
 Leave Link  601 at Mon Jul 12 14:48:11 2021, MaxMem=  5368709120 cpu:              16.2 elap:               0.5
 (Enter /home/zc/g16/l701.exe)
 ... and contract with generalized density number  0.
 Compute integral first derivatives.
 R6Disp: Adding Grimme-D3(BJ) dispersion energy 1st derivatives to the gradient.
   1 Symmetry operations used in ECPInt.
 ECPInt:  NShTT=   35511 NPrTT=  132863 LenC2=   28132 LenP2D=   67905.
 LDataN:  DoStor=T MaxTD1= 5 Len=  102
 D1PCM: PCM CHGder 1st derivatives, ID1Alg=3 FixD1E=F DoIter=F DoCFld=F I1PDM=0.
 GePol: Maximum number of non-zero 1st derivatives   =     250
 Leave Link  701 at Mon Jul 12 14:48:15 2021, MaxMem=  5368709120 cpu:             145.9 elap:               3.7
 (Enter /home/zc/g16/l702.exe)
 L702 exits ... SP integral derivatives will be done elsewhere.
[...]
 0063,-0.00000148,-0.00000105,0.00000008,-0.00000073,0.00031878,0.00003
 382,0.00064376,-0.00097645,-0.00075885,-0.00410547,-0.07319447,-0.0257
 4114,0.03704049,0.00001750,0.00006834,-0.00000967,-0.00005594,-0.00001
 740,0.00001071,0.00007783,-0.00001469,0.00000782,-0.00015957,-0.000110
 83,0.00006448,-0.00016576,0.00034437,-0.00012813,0.00007588,-0.0001488
 8,-0.00000162,0.00000751,-0.00003940,0.00001126,0.00002992,0.00001869,
 -0.00000848,0.00002267,-0.00002715,-0.00000236,0.00026011,-0.00029656,
 -0.00002501,0.00045903,-0.00049923,-0.00075296,-0.00152713,0.00035768,
 0.00044907,-0.00000956,-0.00000863,-0.00000397,0.00002057,0.00000771,0
 .00000714,-0.00001118,-0.00000936,0.00000081,0.00000707,0.00000812,0.0
 0000202,0.00002543,0.00000818,-0.00001286,-0.00001593,-0.00000024,0.00
 000272,0.00001092,0.00000143,-0.00000128,-0.00000533,-0.00000216,0.000
 00143,-0.00002112,-0.00000570,0.00000400,0.00955565,0.01224776,-0.0029
 7163,-0.00000329,-0.00000058,0.00000025,0.00001100,0.00001415,-0.00000
 398,0.00002744,-0.00001533,-0.00000343,-0.00000718,0.00000319,0.000001
 42,-0.12674542,-0.11951239,0.03690181,-0.00480837,-0.02407303,0.004994
 21,-0.00550793,0.00001778,0.00156472,0.00020026,0.00324635,0.00061432,
 0.00000295,0.00000363,-0.00000063,0.00002111,-0.00004382,0.00002623,0.
 00000719,0.00000686,0.00000197,0.00000910,0.00000589,-0.00000770,-0.00
 000545,0.00000066,0.00001430,-0.00001112,-0.00000566,-0.00001792,0.000
 00381,0.00000369,0.00000066,0.00000603,0.00000351,-0.00000488,0.000004
 93,0.00000590,-0.00000276,-0.00000243,-0.00000304,0.00000374,-0.000002
 92,-0.00000559,-0.00000444,-0.00000834,0.00000231,0.00000289,-0.000008
 20,-0.00000307,0.00000077,0.00000387,-0.00000057,0.00000062,0.00000240
 ,-0.00000058,-0.00000213,-0.00000103,-0.00000043,0.00000080,-0.0000019
 2,-0.00000079,-0.00000080,0.00000033,-0.00000422,0.00000070,0.00000121
 ,0.00000024,-0.00000047,0.00000076,0.00000039,-0.00000031,-0.00000270,
 0.00000299,0.00000013,0.00000222,-0.00000135,-0.00000003,0.00000033,-0
 .00000108,0.00000012,0.12712238,0.00001051,-0.00009859,0.00001645,0.00
 006203,0.00001347,-0.00001643,0.00000628,0.00005060,0.00000733,-0.0002
 4246,0.00020713,0.00002830,0.00061334,-0.00009165,-0.00019022,-0.00012
 444,0.00017621,-0.00001053,-0.00002003,0.00005430,0.00000082,-0.000018
 39,-0.00002123,0.00000702,-0.00003571,0.00003374,0.00000011,0.00010486
 ,0.00006048,-0.00004546,-0.00142389,0.00041048,-0.00036989,0.00089208,
 -0.00009985,0.00000437,0.00002107,0.00002405,-0.00001345,-0.00003197,-
 0.00006200,0.00002551,0.00000197,0.00002413,-0.00000633,-0.00001181,0.
 00000057,0.00000587,-0.00004480,0.00000004,0.00000347,0.00002432,0.000
 00827,-0.00000631,-0.00001618,-0.00000030,0.00000403,0.00000634,0.0000
 0411,-0.00000182,0.00001425,0.00000854,-0.00000486,-0.01376756,-0.0146
 0777,0.00553829,0.00000366,-0.00000214,-0.00000076,-0.00001155,-0.0000
 1343,0.00000458,-0.00002600,0.00001406,0.00000257,0.00000744,-0.000001
 08,-0.00000089,-0.12047437,-0.25821626,0.05830556,0.00357548,0.0057951
 2,-0.00130646,0.00161578,0.00001073,0.00007367,0.00076672,-0.00264330,
 0.00116650,-0.00000252,-0.00000375,0.00000146,-0.00004348,0.00008783,0
 .00001360,-0.00001268,-0.00001394,-0.00000207,-0.00000741,-0.00001177,
 0.00000948,-0.00000490,0.00001191,-0.00002725,0.00000420,0.00001754,0.
 00001681,-0.00000627,-0.00000979,0.00000037,-0.00000308,-0.00000879,0.
 00000336,0.00000471,-0.00000834,-0.00000035,0.00000130,0.00000233,0.00
 000702,-0.00000108,-0.00000125,-0.00000963,0.00000430,0.00000564,-0.00
 000823,0.00000729,0.00000369,0.00000478,-0.00000226,-0.00000148,-0.000
 00237,-0.00000193,-0.00000031,0.00000309,0.00000123,0.00000055,-0.0000
 0441,0.00000219,0.00000157,0.00000282,-0.00000071,0.00000528,-0.000000
 58,-0.00000028,-0.00000107,-0.00000060,-0.00000039,-0.00000076,0.00000
 078,0.00000299,-0.00000328,-0.00000003,-0.00000228,0.00000140,0.000000
 39,-0.00000041,0.00000114,-0.00000007,0.12912462,0.26850466,-0.0000007
 8,0.00000517,0.00002111,-0.00000150,-0.00000094,-0.00001431,0.00000459
 ,0.00001140,0.00010366,0.00008470,0.00000266,0.00006702,-0.00016950,-0
 .00013779,-0.00049740,-0.00000538,-0.00000576,-0.00004800,0.00000828,0
 .00000459,0.00003189,-0.00000278,-0.00000021,0.00000172,-0.00000104,-0
 .00000156,-0.00001040,-0.00008669,0.00003272,-0.00009041,-0.00061082,-
 0.00055002,-0.00359623,0.00036693,0.00010844,0.00097104,-0.00000856,-0
 .00000766,-0.00003394,0.00001329,0.00001774,0.00005813,-0.00000095,-0.
 00000410,-0.00001365,0.00000509,0.00000199,0.00002258,-0.00000473,-0.0
 0000684,-0.00003222,-0.00000102,-0.00000154,-0.00000163,0.00000141,0.0
 0000061,0.00000508,0.00000012,-0.00000016,0.00000030,0.00000094,-0.000
 00098,-0.00000509,0.00102817,0.00046996,0.00369583,-0.00000040,0.00000
 006,-0.00000240,-0.00000003,-0.00000043,0.00000180,-0.00000178,0.00000
 049,-0.00000195,0.00000077,-0.00000005,0.00000247,0.03704964,0.0581179
 5,-0.04780381,0.00074335,0.00408026,0.00105643,0.00131903,0.00038501,0
 .00222120,0.00099557,0.00068340,0.00561633,0.00000031,0.00000026,0.000
 00247,0.00002618,0.00001366,0.00011398,-0.00000970,-0.00000048,0.00000
 054,0.00000905,0.00000149,-0.00000357,-0.00000371,-0.00000120,-0.00001
 844,-0.00000063,-0.00000833,-0.00001849,-0.00000900,-0.00000122,-0.000
 00134,0.00000734,0.00000173,-0.00000457,-0.00000257,-0.00000057,-0.000
 00402,-0.00000426,0.00000259,-0.00000962,0.00000219,-0.00000349,-0.000
 00558,-0.00000077,0.00001225,-0.00000018,0.00000251,-0.00001329,0.0000
 0162,0.00000184,-0.00000103,-0.00000127,-0.00000289,0.00000115,-0.0000
 0097,0.00000112,-0.00000003,-0.00000176,-0.00000183,-0.00000065,-0.000
 00190,0.00000016,0.00000010,0.00000054,0.00000092,-0.00000038,-0.00000
 078,-0.00000151,0.00000030,-0.00000065,0.00000013,-0.00000003,0.000000
 31,0.00000012,0.00000021,0.00000098,0.00000002,0.00000005,0.00000011,-
 0.04032812,-0.06305214,0.03957792,-0.00002815,0.00002134,0.00000149,-0
 .00002432,-0.00002308,0.00001159,-0.00001469,-0.00005240,0.00001234,-0
 .00004318,0.00015847,-0.00005986,-0.00007602,-0.00001996,0.00002066,0.
 00004649,0.00003709,-0.00001449,0.00000048,0.00003088,-0.00000422,-0.0
 0003154,-0.00001619,0.00000855,-0.00000563,-0.00000312,0.00000218,-0.0
 0040546,-0.00014549,0.00006519,0.00036879,0.00133129,-0.00009887,0.000
 15066,0.00005340,-0.00003616,0.00000522,0.00000887,-0.00000268,-0.0000
 1529,-0.00001481,0.00000701,0.00000223,0.00000841,-0.00000174,-0.00000
 754,-0.00000041,0.00000270,-0.00001353,-0.00001666,0.00000514,0.000012
 74,0.00000006,-0.00000278,-0.00000874,-0.00000069,0.00000273,0.0000042
 7,0.00000199,-0.00000120,0.00001631,0.00000803,-0.00000499,-0.00512743
 ,-0.00075109,0.00168786,0.00000565,-0.00000196,-0.00000090,-0.00001243
 ,-0.00001623,0.00000476,-0.00002874,0.00001810,0.00000260,0.00000858,-
 0.00000305,-0.00000109,-0.00744033,0.02297119,-0.00180989,-0.15861131,
 0.13986623,0.00292767,0.00914132,-0.00979840,0.00060140,0.00119826,-0.
 00286533,0.00146217,-0.00000474,-0.00000228,0.00000158,0.00001330,0.00
 002532,0.00002760,-0.00000416,-0.00000617,0.00000059,-0.00000284,-0.00
 000593,0.00000235,-0.00000047,0.00000395,-0.00000786,0.00000230,0.0000
 0583,0.00000499,-0.00000119,-0.00000341,0.00000130,-0.00000061,-0.0000
 0369,-0.00000034,0.00000257,-0.00000324,-0.00000010,0.00000099,0.00000
 059,0.00000408,-0.00000032,-0.00000098,-0.00000500,0.00000889,0.000001
 87,-0.00000467,0.00000894,0.00000100,-0.00000041,-0.00000248,0.0000002
 4,-0.00000106,-0.00000266,0.00000094,0.00000156,0.00000110,0.00000042,
 -0.00000154,0.00000099,0.00000054,0.00000033,-0.00000031,0.00000323,-0
 .00000033,-0.00000055,-0.00000036,0.00000003,-0.00000094,-0.00000023,0
 .00000012,0.00000222,-0.00000228,0.00000012,-0.00000206,0.00000114,0.0
 0000033,-0.00000014,0.00000098,0.00000003,0.00107710,-0.00061301,-0.00
 053758,0.15975794,0.00000447,-0.00000554,-0.00000058,0.00000623,0.0000
 1772,-0.00000133,-0.00001624,0.00001187,0.00000248,-0.00000148,0.00005
 126,-0.00004225,0.00002738,0.00000502,-0.00000392,-0.00001154,-0.00001
 402,0.00000463,0.00000444,-0.00001643,0.00000215,0.00000978,0.00000920
 ,-0.00000339,0.00000408,-0.00000102,-0.00000016,-0.00007167,-0.0000625
 0,-0.00000498,-0.00003854,0.00045603,0.00007761,0.00005574,-0.00001355
 ,-0.00000767,-0.00000221,-0.00000351,0.00000073,0.00000718,0.00000651,
 -0.00000103,-0.00000258,-0.00000321,0.00000100,0.00000217,0.00000076,0
 .00000038,-0.00000097,0.00000191,-0.00000014,-0.00000445,0.00000279,0.
 00000019,0.00000278,0.00000057,0.00000011,-0.00000222,0.00000043,0.000
 00031,-0.00000657,-0.00000488,0.00000157,-0.00200722,-0.00005603,0.000
 85217,-0.00000347,0.00000151,0.00000036,0.00000674,0.00000850,-0.00000
 273,0.00001492,-0.00000908,-0.00000169,-0.00000458,0.00000102,0.000000
 83,-0.00463325,0.00687396,0.00006072,0.14047117,-0.24328716,0.00493143
 ,0.01714994,-0.01421700,-0.00046423,-0.00025086,-0.00290830,0.00148646
 ,0.00000197,0.00000157,-0.00000039,-0.00000690,0.00007262,0.00001707,0
 .00000237,0.00000295,0.00000018,0.00000266,0.00000256,-0.00000224,0.00
 000002,-0.00000078,0.00000483,-0.00000167,-0.00000233,-0.00000482,0.00
 000157,0.00000116,0.00000024,0.00000192,0.00000084,-0.00000161,0.00000
 065,0.00000222,-0.00000054,-0.00000092,-0.00000030,0.00000103,-0.00000
 098,-0.00000078,-0.00000117,-0.00000477,0.00000013,-0.00000503,-0.0000
 0333,0.00000053,0.00000558,0.00000285,-0.00000166,-0.00000082,0.000002
 46,-0.00000130,0.,-0.00000080,0.00000019,-0.00000204,-0.00000046,0.000
 00062,0.00000164,-0.00000015,-0.00000228,0.00000046,0.00000130,-0.0000
 0051,-0.00000088,0.00000122,-0.00000024,0.00000032,-0.00000135,0.00000
 140,0.00000021,0.00000114,-0.00000073,-0.00000002,0.00000013,-0.000000
 48,0.00000017,0.00053863,-0.00001524,-0.00043560,-0.15084795,0.2520532
 3,0.00000409,-0.00000386,-0.00000384,0.00000708,0.00000438,0.00001488,
 0.00000680,0.00000952,0.00000461,-0.00003528,-0.00007341,-0.00020725,0
 .00001337,0.00000531,0.00001080,-0.00000700,-0.00000485,0.00000356,-0.
 00000015,-0.00000300,0.00000368,0.00000456,0.00000167,-0.00000158,0.00
 000108,0.00000124,0.00000272,0.00005384,0.00000941,-0.00019763,0.00011
 175,-0.00018927,0.00091928,-0.00003651,-0.00000721,0.00001545,-0.00000
 098,-0.00000143,-0.00000115,0.00000362,0.00000326,0.00000775,-0.000000
 05,-0.00000115,0.00000016,0.00000230,0.00000088,0.00000541,0.00000272,
 0.00000291,-0.00000128,-0.00000210,-0.00000068,-0.00000106,0.00000220,
 0.00000078,0.00000421,-0.00000055,-0.00000050,-0.00000014,-0.00000275,
 -0.00000127,-0.00000224,0.00188097,0.00060743,0.00248326,-0.00000067,0
 .00000007,-0.00000041,0.00000124,0.00000174,-0.00000127,0.00000308,-0.
 00000231,-0.00000141,-0.00000085,0.00000053,0.00000069,0.00243425,-0.0
 0531738,0.00174102,0.00283468,0.00504930,-0.03453757,-0.00354186,0.004
 78604,0.00444997,0.00106020,0.00199584,0.00592857,0.00000092,0.0000004
 4,0.00000130,0.00003256,0.00001080,0.00016696,-0.00000225,0.00000079,-
 0.00000042,0.00000255,0.00000049,-0.00000134,-0.00000109,-0.00000080,-
 0.00000171,-0.00000003,-0.00000142,-0.00000292,-0.00000262,0.00000046,
 -0.00000109,0.00000196,0.00000023,-0.00000136,-0.00000070,0.00000021,-
 0.00000039,-0.00000172,0.00000010,-0.00000297,0.00000103,-0.00000053,-
 0.00000120,0.00000037,0.00000322,-0.00000231,-0.00000376,-0.00000481,-
 0.00000277,0.00000172,-0.00000076,-0.00000070,-0.00000185,0.00000074,-
 0.00000088,0.00000081,0.00000004,-0.00000138,-0.00000168,-0.00000087,-
 0.00000171,0.00000019,-0.00000020,0.00000053,0.00000085,-0.00000027,-0
 .00000062,-0.00000118,0.00000032,-0.00000051,-0.00000002,0.00000039,0.
 00000098,0.00000033,-0.00000002,0.00000049,0.00000016,0.,0.00000074,-0
 .00071463,-0.00021122,-0.00199418,-0.00329697,-0.00570507,0.02531331,0
 .00000140,-0.00003708,0.00000642,0.00003180,0.00002072,-0.00001472,-0.
 00003730,0.00001798,0.00000672,0.00009470,-0.00002444,0.00002312,-0.00
 001323,-0.00014540,-0.00000385,-0.00003822,0.00003593,-0.00003890,-0.0
 0000124,0.00000704,0.00000928,-0.00000155,-0.00000161,0.00000112,-0.00
 000897,0.00001158,-0.00000016,-0.00006394,-0.00003420,-0.00002174,-0.0
 0008106,-0.00062674,0.00051467,-0.00010594,0.00019019,0.00006062,0.000
 00467,0.00000093,-0.00000127,-0.00000434,-0.00001097,0.00000283,-0.000
 00044,0.00000493,-0.00000034,-0.00000129,-0.00000002,0.00000083,-0.000
 00397,0.00000450,0.00000220,0.00000183,-0.00000164,-0.00000011,-0.0000
 0289,-0.00000009,0.00000171,0.00000098,0.00000051,-0.00000036,0.000001
 91,-0.00000120,-0.00000214,-0.00041862,0.00283449,-0.00029118,-0.00000
 080,0.00000075,-0.00000027,0.00000006,0.00000023,0.00000026,-0.0000007
 4,-0.00000045,-0.00000006,-0.00000023,0.,0.00000037,0.00106928,-0.0010
 9988,0.00103504,-0.00020857,0.00240962,0.00022849,-0.31550215,-0.08638
 782,0.07024972,-0.00981061,-0.00495737,0.00212242,0.00000027,-0.000000
 60,0.00000010,0.00005274,-0.00005231,-0.00000058,-0.00000255,-0.000001
 65,-0.00000045,-0.00000177,-0.00000125,0.00000154,-0.00000171,0.000000
 34,-0.00000713,0.00000082,0.00000238,0.00000671,-0.00000221,-0.0000016
 2,-0.00000030,-0.00000141,-0.00000145,0.00000113,-0.00000024,-0.000001
 36,0.00000023,0.00000021,0.00000035,-0.00000085,0.00000073,0.00000038,
 0.00000008,0.00000038,-0.00000033,0.00000300,-0.00000015,-0.00000154,-
 0.00000307,-0.00000062,0.00000067,-0.00000039,-0.00000119,0.00000090,0
 .00000017,0.00000047,-0.00000029,-0.00000107,0.00000018,-0.00000017,0.
 00000024,-0.00000015,0.00000120,0.,0.00000010,-0.00000019,-0.00000036,
 -0.00000029,-0.00000001,0.00000015,0.00000033,-0.00000042,0.00000002,-
 0.00000015,0.00000013,0.00000016,-0.00000008,0.00000011,0.00000002,0.0
 0001329,0.00007292,0.00012474,0.00008047,-0.00039876,-0.00081400,0.324
 96201,0.00000261,0.00002611,-0.00000374,-0.00002037,-0.00000750,0.0000
 0091,0.00002862,0.00000299,-0.00000428,-0.00006378,0.00004249,0.000035
 74,0.00013090,0.00015309,-0.00007175,0.00001804,-0.00005688,-0.0000269
 9,0.00001014,-0.00001828,0.00000882,0.00001013,0.00001272,-0.00000348,
 0.00000836,-0.00000921,-0.00000032,0.00001242,0.00010698,-0.00004999,0
 .00058702,0.00137871,-0.00000869,0.00031021,-0.00020471,0.00002565,-0.
 00000731,-0.00000221,0.00000160,0.00001002,0.00001891,-0.00000465,0.00
 000137,-0.00000786,0.00000121,0.00000361,-0.00000057,-0.00000016,0.000
 00581,0.00000066,0.00000045,-0.00000571,0.00000208,0.00000078,0.000007
 22,0.00000092,-0.00000065,-0.00000230,-0.00000138,0.00000059,-0.000005
 64,-0.00000315,0.00000004,0.00363693,-0.00485553,0.00008771,-0.0000021
 2,0.00000077,0.00000005,0.00000493,0.00000566,-0.00000159,0.00001020,-
 0.00000617,-0.00000126,-0.00000295,0.00000050,0.00000075,-0.00113320,-
 0.00449348,0.00175939,-0.02379959,0.00274637,0.00465520,-0.08380911,-0
 .07698660,0.02461278,0.01648054,0.00605372,-0.00457656,0.00000136,0.00
 000123,-0.00000040,-0.00007258,0.00006789,0.00000500,0.00000285,0.0000
 0304,0.00000026,0.00000264,0.00000272,-0.00000239,0.00000325,-0.000001
 01,0.00000940,-0.00000056,-0.00000394,-0.00000930,0.00000209,0.0000027
 7,-0.00000025,0.00000222,0.00000251,-0.00000167,-0.00000110,0.00000220
 ,-0.00000014,-0.00000079,0.00000001,-0.00000117,-0.00000011,0.00000025
 ,0.00000094,-0.00000337,0.00000015,-0.00000162,-0.00000210,0.00000052,
 0.00000232,0.00000182,-0.00000116,0.00000076,0.00000091,-0.00000134,-0
 .00000117,-0.00000026,0.00000038,0.00000181,-0.00000145,-0.00000029,-0
 .00000211,0.00000038,-0.00000284,0.00000048,0.00000029,0.00000036,0.00
 000038,-0.00000030,0.00000027,-0.00000070,-0.00000108,0.00000114,0.000
 00005,0.00000098,-0.00000048,0.,0.00000011,-0.00000036,0.00000005,-0.0
 0119132,0.00039780,0.00028027,0.00065702,0.00103978,-0.00096624,0.0881
 7210,0.07458920,0.00000032,0.00000399,0.00000440,-0.00000840,-0.000007
 10,-0.00002466,0.00000508,-0.00000222,0.00001073,0.00002917,0.00002808
 ,0.00018411,-0.00004633,-0.00001790,-0.00013593,-0.00003616,-0.0000304
 8,-0.00019784,0.00000880,0.00000942,0.00004876,-0.00000069,-0.00000120
 ,0.00000323,0.00000033,-0.00000094,-0.00000059,-0.00002888,-0.00004092
 ,-0.00019052,0.00032801,0.00022780,0.00196708,0.00004217,0.00004902,0.
 00033948,0.,-0.00000001,-0.00000107,-0.00000041,-0.00000054,0.00000164
 ,0.00000021,0.00000051,0.00000161,0.00000027,0.00000055,0.00000283,0.0
 0000201,0.00000070,0.00001041,0.00000052,0.,-0.00000013,0.00000058,0.0
 0000077,0.00000557,0.00000007,0.00000004,-0.00000049,-0.00000146,-0.00
 000082,-0.00000962,-0.00041454,0.00024408,0.00036686,0.00000017,-0.000
 00051,-0.00000156,-0.00000047,-0.00000068,0.00000175,-0.00000170,0.000
 00082,-0.00000121,0.00000082,0.00000018,0.00000146,0.00104018,0.001752
 87,0.00504172,0.00425805,-0.00045116,0.00210547,0.06985332,0.02511525,
 -0.04057564,-0.00117366,-0.00039985,-0.00253885,-0.00000020,-0.0000000
 2,0.00000036,0.00000254,0.00000106,0.00000782,-0.00000107,-0.00000047,
 -0.00000025,0.00000086,-0.00000002,-0.00000071,0.00000022,0.00000022,-
 0.00000063,-0.00000064,-0.00000013,-0.00000020,-0.00000142,-0.00000007
 ,-0.00000054,0.00000113,-0.00000041,-0.00000108,0.00000019,-0.00000009
 ,-0.00000013,-0.00000105,0.00000008,-0.00000072,0.00000054,-0.00000063
 ,-0.00000148,-0.00000144,0.00000071,-0.00000092,0.00000193,-0.00000070
 ,-0.00000078,0.00000147,-0.00000053,-0.00000118,-0.00000187,0.00000034
 ,-0.00000043,0.00000098,-0.00000014,-0.00000237,-0.00000162,-0.0000004
 0,-0.00000142,0.00000012,0.00000032,0.00000071,0.00000109,-0.00000043,
 -0.00000090,-0.00000133,0.00000015,-0.00000043,0.00000013,-0.00000008,
 0.00000011,0.00000003,0.00000017,0.00000074,0.00000002,0.00000005,0.00
 000009,0.00031911,0.00003396,0.00064368,-0.00097631,-0.00076054,-0.004
 10505,-0.07320081,-0.02575215,0.03704670\\-0.00000132,-0.00001542,0.00
 000190,0.00001538,0.00000369,-0.00000338,0.00000653,-0.00001834,0.0000
 0180,0.00000099,0.00001610,-0.00000229,-0.00001624,-0.00000427,0.00000
 076,-0.00000494,0.00001863,0.00000289,-0.00000508,-0.00000810,0.000003
 96,0.00000808,-0.00000951,-0.00000056,-0.00001502,0.00001420,0.0000000
 8,0.00000449,0.00000799,-0.00000464,-0.00000803,0.00000931,0.00000086,
 0.00001367,-0.00001538,-0.00000005,0.00000165,-0.00001635,0.00000134,-
 0.00001366,0.00000126,0.00000220,0.00001249,0.00000254,-0.00000259,-0.
 00000350,0.00000174,-0.00000011,-0.00000188,0.00001591,-0.00000314,0.0
 0001507,0.00000003,0.00000181,-0.00001247,-0.00000246,0.00000289,0.000
 00343,-0.00000179,-0.00000032,-0.00000792,0.00000866,0.00000013,0.0000
 0799,-0.00000866,0.00000045,-0.00000099,0.00000644,-0.00000064,0.00000
 174,0.00001479,-0.00000266,-0.00001780,-0.00000601,0.00000448,0.000008
 27,-0.00001105,0.00000016,0.00000094,-0.00000649,0.00000051,-0.0000017
 4,-0.00001475,0.00000257,0.00001782,0.00000592,-0.00000448,-0.00000831
 ,0.00001113,-0.00000013,0.00000240,-0.00000190,-0.00000125,-0.00000239
 ,0.00000213,0.00000158,0.00000124,0.00000171,-0.00000150,0.00000095,0.
 00000109,-0.00000013,0.00000275,0.00000031,0.00000078,0.00000217,-0.00
 000121,-0.00000149,-0.00000221,-0.00000055,-0.00000012,-0.00000216,-0.
 00000077,0.00000087,0.00000139,-0.00000016,0.00000031,0.00000149,0.000
 00002,-0.00000021,0.00000092,-0.00000020,-0.00000016,-0.00000053,-0.00
 000138,-0.00000140,-0.00000204,-0.00000165,0.00000008,-0.00000168,0.00
 000222,0.00000082,-0.00000241,-0.00000106,-0.00000094,0.00000236,0.000
 00114,-0.00000088,0.00000201,0.00000017,0.00000027,-0.00000150,0.00000
 010,-0.00000081,-0.00000070,0.00000009,0.00000014,-0.00000173,0.000000
 09,0.00000023,0.00000087,-0.00000127,-0.00000008,-0.00000212,-0.000002
 64,0.00000084,0.00000029,-0.00000153,0.00000009,-0.00000087,0.00000127
 ,0.00000009,0.00000212,0.00000264,-0.00000082,-0.00000030,0.00000154,-
 0.00000009\\\@


 ARTHROPOD AXIOM: A COMPUTER SYSTEM IS LIKE A SPIDER'S WEB.
 YOU CANNOT PULL ON ONE END WITHOUT MAKING THE OTHER END MOVE.
     -- GREG WETTSTEIN
 Job cpu time:       0 days  8 hours 12 minutes 17.7 seconds.
 Elapsed time:       0 days  0 hours 12 minutes 24.3 seconds.
 File lengths (MBytes):  RWF=   2428 Int=      0 D2E=      0 Chk=     49 Scr=      1
 Normal termination of Gaussian 16 at Mon Jul 12 15:17:25 2021.
