 Entering Gaussian System, Link 0=g16
 Input=PPI.gjf
 Output=PPI.log
 Initial command:
 /home/zc/g16/l1.exe "/tmp/Gau-781320.inp" -scrdir="/tmp/"
 Entering Link 1 = /home/zc/g16/l1.exe PID=    781321.
  
 Copyright (c) 1988,1990,1992,1993,1995,1998,2003,2009,2016,
            Gaussian, Inc.  All Rights Reserved.
  
 This is part of the Gaussian(R) 16 program.  It is based on
 the Gaussian(R) 09 system (copyright 2009, Gaussian, Inc.),
 the Gaussian(R) 03 system (copyright 2003, Gaussian, Inc.),
 the Gaussian(R) 98 system (copyright 1998, Gaussian, Inc.),
 the Gaussian(R) 94 system (copyright 1995, Gaussian, Inc.),
 the Gaussian 92(TM) system (copyright 1992, Gaussian, Inc.),
 the Gaussian 90(TM) system (copyright 1990, Gaussian, Inc.),
 the Gaussian 88(TM) system (copyright 1988, Gaussian, Inc.),
 the Gaussian 86(TM) system (copyright 1986, Carnegie Mellon
 University), and the Gaussian 82(TM) system (copyright 1983,
 Carnegie Mellon University). Gaussian is a federally registered
 trademark of Gaussian, Inc.
  
 This software contains proprietary and confidential information,
 including trade secrets, belonging to Gaussian, Inc.
  
 This software is provided under written license and may be
 used, copied, transmitted, or stored only in accord with that
 written license.
  
 The following legend is applicable only to US Government
 contracts under FAR:
  
                    RESTRICTED RIGHTS LEGEND
  
 Use, reproduction and disclosure by the US Government is
 subject to restrictions as set forth in subparagraphs (a)
 and (c) of the Commercial Computer Software - Restricted
 Rights clause in FAR 52.227-19.
  
 Gaussian, Inc.
 340 Quinnipiac St., Bldg. 40, Wallingford CT 06492
  
  
 ---------------------------------------------------------------
 Warning -- This program may not be used in any manner that
 competes with the business of Gaussian, Inc. or will provide
 assistance to any competitor of Gaussian, Inc.  The licensee
 of this program is prohibited from giving any competitor of
 Gaussian, Inc. access to this program.  By using this program,
 the user acknowledges that Gaussian, Inc. is engaged in the
 business of creating and licensing software in the field of
 computational chemistry and represents and warrants to the
 licensee that it is not a competitor of Gaussian, Inc. and that
 it will not use this program in any manner prohibited above.
 ---------------------------------------------------------------
  

 Cite this work as:
 Gaussian 16, Revision A.03,
 M. J. Frisch, G. W. Trucks, H. B. Schlegel, G. E. Scuseria, 
 M. A. Robb, J. R. Cheeseman, G. Scalmani, V. Barone, 
 G. A. Petersson, H. Nakatsuji, X. Li, M. Caricato, A. V. Marenich, 
 J. Bloino, B. G. Janesko, R. Gomperts, B. Mennucci, H. P. Hratchian, 
 J. V. Ortiz, A. F. Izmaylov, J. L. Sonnenberg, D. Williams-Young, 
 F. Ding, F. Lipparini, F. Egidi, J. Goings, B. Peng, A. Petrone, 
 T. Henderson, D. Ranasinghe, V. G. Zakrzewski, J. Gao, N. Rega, 
 G. Zheng, W. Liang, M. Hada, M. Ehara, K. Toyota, R. Fukuda, 
 J. Hasegawa, M. Ishida, T. Nakajima, Y. Honda, O. Kitao, H. Nakai, 
 T. Vreven, K. Throssell, J. A. Montgomery, Jr., J. E. Peralta, 
 F. Ogliaro, M. J. Bearpark, J. J. Heyd, E. N. Brothers, K. N. Kudin, 
 V. N. Staroverov, T. A. Keith, R. Kobayashi, J. Normand, 
 K. Raghavachari, A. P. Rendell, J. C. Burant, S. S. Iyengar, 
 J. Tomasi, M. Cossi, J. M. Millam, M. Klene, C. Adamo, R. Cammi, 
 J. W. Ochterski, R. L. Martin, K. Morokuma, O. Farkas, 
 J. B. Foresman, and D. J. Fox, Gaussian, Inc., Wallingford CT, 2016.
 
 ******************************************
 Gaussian 16:  ES64L-G16RevA.03 25-Dec-2016
                10-Jul-2021 
 ******************************************
 %chk=PPI.chk
 %nproc=40
 Will use up to   40 processors via shared memory.
 %mem=40GB
 -------------------------------------------------------------------
 #p opt b3lyp def2svp em(gd3bj) scrf(pcm,solvent=diphenylether) freq
 -------------------------------------------------------------------
 1/18=20,19=15,26=3,38=1/1,3;
 2/9=110,12=2,17=6,18=5,40=1/2;
 3/5=43,7=101,11=2,25=1,30=1,70=2201,71=1,72=112,74=-5,124=41/1,2,3;
 4//1;
 5/5=2,38=5,53=112/2;
 6/7=2,8=2,9=2,10=2,28=1/1;
 7//1,2,3,16;
 1/18=20,19=15,26=3/3(2);
 2/9=110/2;
 99//99;
 2/9=110/2;
 3/5=43,7=101,11=2,25=1,30=1,70=2205,71=1,72=112,74=-5,124=41/1,2,3;
 4/5=5,16=3,69=1/1;
 5/5=2,38=5,53=112/2;
 7//1,2,3,16;
 1/18=20,19=15,26=3/3(-5);
 2/9=110/2;
 6/7=2,8=2,9=2,10=2,19=2,28=1/1;
 99/9=1/99;
 Leave Link    1 at Sat Jul 10 10:59:34 2021, MaxMem=  5368709120 cpu:               0.8 elap:               0.1
 (Enter /home/zc/g16/l101.exe)
 ---
 PPI
 ---
 Symbolic Z-matrix:
 Charge =  0 Multiplicity = 1
 C                    -3.11554   0.41439  -0.00041 
 C                    -3.37479  -0.99285   0.00029 
 C                    -4.65833  -1.53872   0.00045 
 C                    -5.72386  -0.61216   0.00006 
 C                    -5.46596   0.79421  -0.00059 
 C                    -4.1803    1.34076  -0.00094 
 C                    -1.70866   0.69681  -0.00043 
 C                    -0.91391  -0.42437   0.00018 
 S                    -1.87116  -1.91005   0.00092 
 C                    -7.13888  -0.89314   0.00023 
 C                    -7.90737   0.23176  -0.00024 
 S                    -6.97307   1.70773  -0.00087 
 C                    -3.91902   2.82215  -0.00146 
 C                    -4.91764  -3.02087   0.00127 
 C                     0.52821  -0.50399   0.00032 
 C                     1.33181  -1.63288   0.00029 
 C                     2.71712  -1.3422    0.00038 
 C                     2.99975   0.01527   0.00053 
 S                     1.50799   0.94248   0.00051 
 C                     4.29038   0.69079   0.00071 
 C                     5.53828  -0.0399   -0.00016 
 C                     6.81196   0.67289   0.00001 
 C                     6.85155   2.09606   0.00105 
 C                     5.65032   2.76307   0.00187 
 C                     4.40337   2.07543   0.00171 
 N                     5.69065  -1.36646  -0.00119 
 S                     7.30196  -1.6794   -0.00195 
 N                     7.87254  -0.14222  -0.00089 
 H                    -1.29878   1.7071   -0.00088 
 H                    -7.55665  -1.89994   0.00073 
 H                    -8.99513   0.29197  -0.0002 
 H                    -3.33387   3.12253  -0.88605 
 H                    -4.85198   3.40256  -0.00554 
 H                    -3.34047   3.1243    0.88691 
 H                    -3.98389  -3.60032  -0.00107 
 H                    -5.49652  -3.32284   0.88936 
 H                    -5.50106  -3.32303  -0.88375 
 H                     0.92762  -2.64602   0.00015 
 H                     3.50406  -2.09233   0.00032 
 H                     7.81103   2.61355   0.00117 
 H                     5.63626   3.85517   0.00268 
 H                     3.49444   2.68093   0.00245 
 
 ITRead=  0  0  0  0  0  0  0  0  0  0  0  0  0  0  0  0  0  0  0  0
 ITRead=  0  0  0  0  0  0  0  0  0  0  0  0  0  0  0  0  0  0  0  0
 ITRead=  0  0
 MicOpt= -1 -1 -1 -1 -1 -1 -1 -1 -1 -1 -1 -1 -1 -1 -1 -1 -1 -1 -1 -1
 MicOpt= -1 -1 -1 -1 -1 -1 -1 -1 -1 -1 -1 -1 -1 -1 -1 -1 -1 -1 -1 -1
 MicOpt= -1 -1
 NAtoms=     42 NQM=       42 NQMF=       0 NMMI=      0 NMMIF=      0
                NMic=       0 NMicF=      0.
                    Isotopes and Nuclear Properties:
 (Nuclear quadrupole moments (NQMom) in fm**2, nuclear magnetic moments (NMagM)
  in nuclear magnetons)

  Atom         1           2           3           4           5           6           7           8           9          10
 IAtWgt=          12          12          12          12          12          12          12          12          32          12
 AtmWgt=  12.0000000  12.0000000  12.0000000  12.0000000  12.0000000  12.0000000  12.0000000  12.0000000  31.9720718  12.0000000
 NucSpn=           0           0           0           0           0           0           0           0           0           0
 AtZEff=  -0.0000000  -0.0000000  -0.0000000  -0.0000000  -0.0000000  -0.0000000  -0.0000000  -0.0000000  -0.0000000  -0.0000000
 NQMom=    0.0000000   0.0000000   0.0000000   0.0000000   0.0000000   0.0000000   0.0000000   0.0000000   0.0000000   0.0000000
 NMagM=    0.0000000   0.0000000   0.0000000   0.0000000   0.0000000   0.0000000   0.0000000   0.0000000   0.0000000   0.0000000
 AtZNuc=   6.0000000   6.0000000   6.0000000   6.0000000   6.0000000   6.0000000   6.0000000   6.0000000  16.0000000   6.0000000

  Atom        11          12          13          14          15          16          17          18          19          20
 IAtWgt=          12          32          12          12          12          12          12          12          32          12
 AtmWgt=  12.0000000  31.9720718  12.0000000  12.0000000  12.0000000  12.0000000  12.0000000  12.0000000  31.9720718  12.0000000
 NucSpn=           0           0           0           0           0           0           0           0           0           0
 AtZEff=  -0.0000000  -0.0000000  -0.0000000  -0.0000000  -0.0000000  -0.0000000  -0.0000000  -0.0000000  -0.0000000  -0.0000000
 NQMom=    0.0000000   0.0000000   0.0000000   0.0000000   0.0000000   0.0000000   0.0000000   0.0000000   0.0000000   0.0000000
 NMagM=    0.0000000   0.0000000   0.0000000   0.0000000   0.0000000   0.0000000   0.0000000   0.0000000   0.0000000   0.0000000
 AtZNuc=   6.0000000  16.0000000   6.0000000   6.0000000   6.0000000   6.0000000   6.0000000   6.0000000  16.0000000   6.0000000

  Atom        21          22          23          24          25          26          27          28          29          30
 IAtWgt=          12          12          12          12          12          14          32          14           1           1
 AtmWgt=  12.0000000  12.0000000  12.0000000  12.0000000  12.0000000  14.0030740  31.9720718  14.0030740   1.0078250   1.0078250
 NucSpn=           0           0           0           0           0           2           0           2           1           1
 AtZEff=  -0.0000000  -0.0000000  -0.0000000  -0.0000000  -0.0000000  -0.0000000  -0.0000000  -0.0000000  -0.0000000  -0.0000000
 NQMom=    0.0000000   0.0000000   0.0000000   0.0000000   0.0000000   2.0440000   0.0000000   2.0440000   0.0000000   0.0000000
 NMagM=    0.0000000   0.0000000   0.0000000   0.0000000   0.0000000   0.4037610   0.0000000   0.4037610   2.7928460   2.7928460
 AtZNuc=   6.0000000   6.0000000   6.0000000   6.0000000   6.0000000   7.0000000  16.0000000   7.0000000   1.0000000   1.0000000

  Atom        31          32          33          34          35          36          37          38          39          40
 IAtWgt=           1           1           1           1           1           1           1           1           1           1
 AtmWgt=   1.0078250   1.0078250   1.0078250   1.0078250   1.0078250   1.0078250   1.0078250   1.0078250   1.0078250   1.0078250
 NucSpn=           1           1           1           1           1           1           1           1           1           1
 AtZEff=  -0.0000000  -0.0000000  -0.0000000  -0.0000000  -0.0000000  -0.0000000  -0.0000000  -0.0000000  -0.0000000  -0.0000000
 NQMom=    0.0000000   0.0000000   0.0000000   0.0000000   0.0000000   0.0000000   0.0000000   0.0000000   0.0000000   0.0000000
 NMagM=    2.7928460   2.7928460   2.7928460   2.7928460   2.7928460   2.7928460   2.7928460   2.7928460   2.7928460   2.7928460
 AtZNuc=   1.0000000   1.0000000   1.0000000   1.0000000   1.0000000   1.0000000   1.0000000   1.0000000   1.0000000   1.0000000

  Atom        41          42
 IAtWgt=           1           1
 AtmWgt=   1.0078250   1.0078250
 NucSpn=           1           1
 AtZEff=  -0.0000000  -0.0000000
 NQMom=    0.0000000   0.0000000
 NMagM=    2.7928460   2.7928460
 AtZNuc=   1.0000000   1.0000000
 Leave Link  101 at Sat Jul 10 10:59:34 2021, MaxMem=  5368709120 cpu:               6.1 elap:               0.2
 (Enter /home/zc/g16/l103.exe)

 GradGradGradGradGradGradGradGradGradGradGradGradGradGradGradGradGradGrad
 Berny optimization.
 Initialization pass.
                           ----------------------------
                           !    Initial Parameters    !
                           ! (Angstroms and Degrees)  !
 --------------------------                            --------------------------
 ! Name  Definition              Value          Derivative Info.                !
 --------------------------------------------------------------------------------
 ! R1    R(1,2)                  1.4309         estimate D2E/DX2                !
 ! R2    R(1,6)                  1.4113         estimate D2E/DX2                !
 ! R3    R(1,7)                  1.4349         estimate D2E/DX2                !
 ! R4    R(2,3)                  1.3948         estimate D2E/DX2                !
 ! R5    R(2,9)                  1.7613         estimate D2E/DX2                !
 ! R6    R(3,4)                  1.412          estimate D2E/DX2                !
 ! R7    R(3,14)                 1.5047         estimate D2E/DX2                !
 ! R8    R(4,5)                  1.4298         estimate D2E/DX2                !
 ! R9    R(4,10)                 1.4426         estimate D2E/DX2                !
 ! R10   R(5,6)                  1.397          estimate D2E/DX2                !
 ! R11   R(5,12)                 1.7624         estimate D2E/DX2                !
 ! R12   R(6,13)                 1.5043         estimate D2E/DX2                !
 ! R13   R(7,8)                  1.3743         estimate D2E/DX2                !
 ! R14   R(7,29)                 1.0903         estimate D2E/DX2                !
 ! R15   R(8,9)                  1.7674         estimate D2E/DX2                !
 ! R16   R(8,15)                 1.4443         estimate D2E/DX2                !
 ! R17   R(10,11)                1.3623         estimate D2E/DX2                !
 ! R18   R(10,30)                1.09           estimate D2E/DX2                !
 ! R19   R(11,12)                1.7468         estimate D2E/DX2                !
 ! R20   R(11,31)                1.0894         estimate D2E/DX2                !
 ! R21   R(13,32)                1.1023         estimate D2E/DX2                !
 ! R22   R(13,33)                1.0988         estimate D2E/DX2                !
 ! R23   R(13,34)                1.1024         estimate D2E/DX2                !
 ! R24   R(14,35)                1.0989         estimate D2E/DX2                !
 ! R25   R(14,36)                1.1023         estimate D2E/DX2                !
 ! R26   R(14,37)                1.1022         estimate D2E/DX2                !
 ! R27   R(15,16)                1.3857         estimate D2E/DX2                !
 ! R28   R(15,19)                1.7471         estimate D2E/DX2                !
 ! R29   R(16,17)                1.4155         estimate D2E/DX2                !
 ! R30   R(16,38)                1.0908         estimate D2E/DX2                !
 ! R31   R(17,18)                1.3866         estimate D2E/DX2                !
 ! R32   R(17,39)                1.0872         estimate D2E/DX2                !
 ! R33   R(18,19)                1.7564         estimate D2E/DX2                !
 ! R34   R(18,20)                1.4567         estimate D2E/DX2                !
 ! R35   R(20,21)                1.4461         estimate D2E/DX2                !
 ! R36   R(20,25)                1.3892         estimate D2E/DX2                !
 ! R37   R(21,22)                1.4596         estimate D2E/DX2                !
 ! R38   R(21,26)                1.3353         estimate D2E/DX2                !
 ! R39   R(22,23)                1.4237         estimate D2E/DX2                !
 ! R40   R(22,28)                1.3376         estimate D2E/DX2                !
 ! R41   R(23,24)                1.374          estimate D2E/DX2                !
 ! R42   R(23,40)                1.0901         estimate D2E/DX2                !
 ! R43   R(24,25)                1.424          estimate D2E/DX2                !
 ! R44   R(24,41)                1.0922         estimate D2E/DX2                !
 ! R45   R(25,42)                1.0921         estimate D2E/DX2                !
 ! R46   R(26,27)                1.6414         estimate D2E/DX2                !
 ! R47   R(27,28)                1.6397         estimate D2E/DX2                !
 ! A1    A(2,1,6)              120.5859         estimate D2E/DX2                !
 ! A2    A(2,1,7)              111.7894         estimate D2E/DX2                !
 ! A3    A(6,1,7)              127.6247         estimate D2E/DX2                !
 ! A4    A(1,2,3)              123.4779         estimate D2E/DX2                !
 ! A5    A(1,2,9)              110.9444         estimate D2E/DX2                !
 ! A6    A(3,2,9)              125.5777         estimate D2E/DX2                !
 ! A7    A(2,3,4)              115.9509         estimate D2E/DX2                !
 ! A8    A(2,3,14)             122.9633         estimate D2E/DX2                !
 ! A9    A(4,3,14)             121.0857         estimate D2E/DX2                !
 ! A10   A(3,4,5)              120.6182         estimate D2E/DX2                !
 ! A11   A(3,4,10)             127.7593         estimate D2E/DX2                !
 ! A12   A(5,4,10)             111.6225         estimate D2E/DX2                !
 ! A13   A(4,5,6)              123.4222         estimate D2E/DX2                !
 ! A14   A(4,5,12)             110.8302         estimate D2E/DX2                !
 ! A15   A(6,5,12)             125.7476         estimate D2E/DX2                !
 ! A16   A(1,6,5)              115.9449         estimate D2E/DX2                !
 ! A17   A(1,6,13)             121.0216         estimate D2E/DX2                !
 ! A18   A(5,6,13)             123.0335         estimate D2E/DX2                !
 ! A19   A(1,7,8)              113.9802         estimate D2E/DX2                !
 ! A20   A(1,7,29)             123.4336         estimate D2E/DX2                !
 ! A21   A(8,7,29)             122.5861         estimate D2E/DX2                !
 ! A22   A(7,8,9)              111.8744         estimate D2E/DX2                !
 ! A23   A(7,8,15)             128.4915         estimate D2E/DX2                !
 ! A24   A(9,8,15)             119.6341         estimate D2E/DX2                !
 ! A25   A(2,9,8)               91.4116         estimate D2E/DX2                !
 ! A26   A(4,10,11)            113.1084         estimate D2E/DX2                !
 ! A27   A(4,10,30)            123.7673         estimate D2E/DX2                !
 ! A28   A(11,10,30)           123.1243         estimate D2E/DX2                !
 ! A29   A(10,11,12)           113.3264         estimate D2E/DX2                !
 ! A30   A(10,11,31)           127.5073         estimate D2E/DX2                !
 ! A31   A(12,11,31)           119.1663         estimate D2E/DX2                !
 ! A32   A(5,12,11)             91.1126         estimate D2E/DX2                !
 ! A33   A(6,13,32)            111.1516         estimate D2E/DX2                !
 ! A34   A(6,13,33)            111.8838         estimate D2E/DX2                !
 ! A35   A(6,13,34)            111.1496         estimate D2E/DX2                !
 ! A36   A(32,13,33)           107.6862         estimate D2E/DX2                !
 ! A37   A(32,13,34)           107.0627         estimate D2E/DX2                !
 ! A38   A(33,13,34)           107.6872         estimate D2E/DX2                !
 ! A39   A(3,14,35)            111.8984         estimate D2E/DX2                !
 ! A40   A(3,14,36)            111.1495         estimate D2E/DX2                !
 ! A41   A(3,14,37)            111.1503         estimate D2E/DX2                !
 ! A42   A(35,14,36)           107.6676         estimate D2E/DX2                !
 ! A43   A(35,14,37)           107.6671         estimate D2E/DX2                !
 ! A44   A(36,14,37)           107.0876         estimate D2E/DX2                !
 ! A45   A(8,15,16)            128.6057         estimate D2E/DX2                !
 ! A46   A(8,15,19)            120.9518         estimate D2E/DX2                !
 ! A47   A(16,15,19)           110.4425         estimate D2E/DX2                !
 ! A48   A(15,16,17)           113.595          estimate D2E/DX2                !
 ! A49   A(15,16,38)           122.8054         estimate D2E/DX2                !
 ! A50   A(17,16,38)           123.5997         estimate D2E/DX2                !
 ! A51   A(16,17,18)           113.6117         estimate D2E/DX2                !
 ! A52   A(16,17,39)           124.5217         estimate D2E/DX2                !
 ! A53   A(18,17,39)           121.8665         estimate D2E/DX2                !
 ! A54   A(17,18,19)           110.1019         estimate D2E/DX2                !
 ! A55   A(17,18,20)           129.3889         estimate D2E/DX2                !
 ! A56   A(19,18,20)           120.5092         estimate D2E/DX2                !
 ! A57   A(15,19,18)            92.2489         estimate D2E/DX2                !
 ! A58   A(18,20,21)           122.0221         estimate D2E/DX2                !
 ! A59   A(18,20,25)           122.2924         estimate D2E/DX2                !
 ! A60   A(21,20,25)           115.6855         estimate D2E/DX2                !
 ! A61   A(20,21,22)           120.4172         estimate D2E/DX2                !
 ! A62   A(20,21,26)           126.9024         estimate D2E/DX2                !
 ! A63   A(22,21,26)           112.6805         estimate D2E/DX2                !
 ! A64   A(21,22,23)           120.8258         estimate D2E/DX2                !
 ! A65   A(21,22,28)           113.2233         estimate D2E/DX2                !
 ! A66   A(23,22,28)           125.9509         estimate D2E/DX2                !
 ! A67   A(22,23,24)           117.4491         estimate D2E/DX2                !
 ! A68   A(22,23,40)           119.9331         estimate D2E/DX2                !
 ! A69   A(24,23,40)           122.6179         estimate D2E/DX2                !
 ! A70   A(23,24,25)           122.0827         estimate D2E/DX2                !
 ! A71   A(23,24,41)           119.78           estimate D2E/DX2                !
 ! A72   A(25,24,41)           118.1372         estimate D2E/DX2                !
 ! A73   A(20,25,24)           123.5398         estimate D2E/DX2                !
 ! A74   A(20,25,42)           119.0056         estimate D2E/DX2                !
 ! A75   A(24,25,42)           117.4547         estimate D2E/DX2                !
 ! A76   A(21,26,27)           107.543          estimate D2E/DX2                !
 ! A77   A(26,27,28)            99.3732         estimate D2E/DX2                !
 ! A78   A(22,28,27)           107.1801         estimate D2E/DX2                !
 ! D1    D(6,1,2,3)              0.0018         estimate D2E/DX2                !
 ! D2    D(6,1,2,9)           -179.9973         estimate D2E/DX2                !
 ! D3    D(7,1,2,3)           -179.9998         estimate D2E/DX2                !
 ! D4    D(7,1,2,9)              0.001          estimate D2E/DX2                !
 ! D5    D(2,1,6,5)              0.0068         estimate D2E/DX2                !
 ! D6    D(2,1,6,13)           179.9907         estimate D2E/DX2                !
 ! D7    D(7,1,6,5)           -179.9912         estimate D2E/DX2                !
 ! D8    D(7,1,6,13)            -0.0073         estimate D2E/DX2                !
 ! D9    D(2,1,7,8)              0.0013         estimate D2E/DX2                !
 ! D10   D(2,1,7,29)          -179.9983         estimate D2E/DX2                !
 ! D11   D(6,1,7,8)            179.9995         estimate D2E/DX2                !
 ! D12   D(6,1,7,29)            -0.0001         estimate D2E/DX2                !
 ! D13   D(1,2,3,4)             -0.0077         estimate D2E/DX2                !
 ! D14   D(1,2,3,14)          -179.9962         estimate D2E/DX2                !
 ! D15   D(9,2,3,4)            179.9913         estimate D2E/DX2                !
 ! D16   D(9,2,3,14)             0.0028         estimate D2E/DX2                !
 ! D17   D(1,2,9,8)             -0.0023         estimate D2E/DX2                !
 ! D18   D(3,2,9,8)            179.9986         estimate D2E/DX2                !
 ! D19   D(2,3,4,5)              0.0049         estimate D2E/DX2                !
 ! D20   D(2,3,4,10)          -179.9943         estimate D2E/DX2                !
 ! D21   D(14,3,4,5)           179.9937         estimate D2E/DX2                !
 ! D22   D(14,3,4,10)           -0.0055         estimate D2E/DX2                !
 ! D23   D(2,3,14,35)           -0.1562         estimate D2E/DX2                !
 ! D24   D(2,3,14,36)          120.2563         estimate D2E/DX2                !
 ! D25   D(2,3,14,37)         -120.5687         estimate D2E/DX2                !
 ! D26   D(4,3,14,35)          179.8558         estimate D2E/DX2                !
 ! D27   D(4,3,14,36)          -59.7316         estimate D2E/DX2                !
 ! D28   D(4,3,14,37)           59.4433         estimate D2E/DX2                !
 ! D29   D(3,4,5,6)              0.0039         estimate D2E/DX2                !
 ! D30   D(3,4,5,12)          -179.9965         estimate D2E/DX2                !
 ! D31   D(10,4,5,6)          -179.9968         estimate D2E/DX2                !
 ! D32   D(10,4,5,12)            0.0028         estimate D2E/DX2                !
 ! D33   D(3,4,10,11)          179.9986         estimate D2E/DX2                !
 ! D34   D(3,4,10,30)            0.0013         estimate D2E/DX2                !
 ! D35   D(5,4,10,11)           -0.0007         estimate D2E/DX2                !
 ! D36   D(5,4,10,30)         -179.9979         estimate D2E/DX2                !
 ! D37   D(4,5,6,1)             -0.0097         estimate D2E/DX2                !
 ! D38   D(4,5,6,13)          -179.9932         estimate D2E/DX2                !
 ! D39   D(12,5,6,1)           179.9908         estimate D2E/DX2                !
 ! D40   D(12,5,6,13)            0.0072         estimate D2E/DX2                !
 ! D41   D(4,5,12,11)           -0.0032         estimate D2E/DX2                !
 ! D42   D(6,5,12,11)          179.9964         estimate D2E/DX2                !
 ! D43   D(1,6,13,32)           59.3643         estimate D2E/DX2                !
 ! D44   D(1,6,13,33)          179.7921         estimate D2E/DX2                !
 ! D45   D(1,6,13,34)          -59.7802         estimate D2E/DX2                !
 ! D46   D(5,6,13,32)         -120.6529         estimate D2E/DX2                !
 ! D47   D(5,6,13,33)           -0.2252         estimate D2E/DX2                !
 ! D48   D(5,6,13,34)          120.2025         estimate D2E/DX2                !
 ! D49   D(1,7,8,9)             -0.003          estimate D2E/DX2                !
 ! D50   D(1,7,8,15)           179.9989         estimate D2E/DX2                !
 ! D51   D(29,7,8,9)           179.9966         estimate D2E/DX2                !
 ! D52   D(29,7,8,15)           -0.0015         estimate D2E/DX2                !
 ! D53   D(7,8,9,2)              0.003          estimate D2E/DX2                !
 ! D54   D(15,8,9,2)          -179.9987         estimate D2E/DX2                !
 ! D55   D(7,8,15,16)         -179.9656         estimate D2E/DX2                !
 ! D56   D(7,8,15,19)            0.0322         estimate D2E/DX2                !
 ! D57   D(9,8,15,16)            0.0364         estimate D2E/DX2                !
 ! D58   D(9,8,15,19)         -179.9658         estimate D2E/DX2                !
 ! D59   D(4,10,11,12)          -0.0018         estimate D2E/DX2                !
 ! D60   D(4,10,11,31)        -179.998          estimate D2E/DX2                !
 ! D61   D(30,10,11,12)        179.9955         estimate D2E/DX2                !
 ! D62   D(30,10,11,31)         -0.0007         estimate D2E/DX2                !
 ! D63   D(10,11,12,5)           0.0029         estimate D2E/DX2                !
 ! D64   D(31,11,12,5)         179.9994         estimate D2E/DX2                !
 ! D65   D(8,15,16,17)         179.9966         estimate D2E/DX2                !
 ! D66   D(8,15,16,38)          -0.0004         estimate D2E/DX2                !
 ! D67   D(19,15,16,17)         -0.0014         estimate D2E/DX2                !
 ! D68   D(19,15,16,38)       -179.9984         estimate D2E/DX2                !
 ! D69   D(8,15,19,18)        -179.9978         estimate D2E/DX2                !
 ! D70   D(16,15,19,18)          0.0004         estimate D2E/DX2                !
 ! D71   D(15,16,17,18)          0.002          estimate D2E/DX2                !
 ! D72   D(15,16,17,39)       -179.9965         estimate D2E/DX2                !
 ! D73   D(38,16,17,18)        179.999          estimate D2E/DX2                !
 ! D74   D(38,16,17,39)          0.0005         estimate D2E/DX2                !
 ! D75   D(16,17,18,19)         -0.0017         estimate D2E/DX2                !
 ! D76   D(16,17,18,20)        179.9971         estimate D2E/DX2                !
 ! D77   D(39,17,18,19)        179.9969         estimate D2E/DX2                !
 ! D78   D(39,17,18,20)         -0.0044         estimate D2E/DX2                !
 ! D79   D(17,18,19,15)          0.0007         estimate D2E/DX2                !
 ! D80   D(20,18,19,15)       -179.9981         estimate D2E/DX2                !
 ! D81   D(17,18,20,21)          0.0431         estimate D2E/DX2                !
 ! D82   D(17,18,20,25)       -179.9579         estimate D2E/DX2                !
 ! D83   D(19,18,20,21)       -179.9583         estimate D2E/DX2                !
 ! D84   D(19,18,20,25)          0.0407         estimate D2E/DX2                !
 ! D85   D(18,20,21,22)        179.998          estimate D2E/DX2                !
 ! D86   D(18,20,21,26)         -0.0004         estimate D2E/DX2                !
 ! D87   D(25,20,21,22)         -0.0011         estimate D2E/DX2                !
 ! D88   D(25,20,21,26)       -179.9995         estimate D2E/DX2                !
 ! D89   D(18,20,25,24)       -179.9979         estimate D2E/DX2                !
 ! D90   D(18,20,25,42)          0.0043         estimate D2E/DX2                !
 ! D91   D(21,20,25,24)          0.0012         estimate D2E/DX2                !
 ! D92   D(21,20,25,42)       -179.9966         estimate D2E/DX2                !
 ! D93   D(20,21,22,23)          0.0007         estimate D2E/DX2                !
 ! D94   D(20,21,22,28)       -179.9987         estimate D2E/DX2                !
 ! D95   D(26,21,22,23)        179.9994         estimate D2E/DX2                !
 ! D96   D(26,21,22,28)          0.0            estimate D2E/DX2                !
 ! D97   D(20,21,26,27)        179.9958         estimate D2E/DX2                !
 ! D98   D(22,21,26,27)         -0.0027         estimate D2E/DX2                !
 ! D99   D(21,22,23,24)         -0.0004         estimate D2E/DX2                !
 ! D100  D(21,22,23,40)        179.9995         estimate D2E/DX2                !
 ! D101  D(28,22,23,24)        179.9989         estimate D2E/DX2                !
 ! D102  D(28,22,23,40)         -0.0012         estimate D2E/DX2                !
 ! D103  D(21,22,28,27)          0.0028         estimate D2E/DX2                !
 ! D104  D(23,22,28,27)       -179.9966         estimate D2E/DX2                !
 ! D105  D(22,23,24,25)          0.0005         estimate D2E/DX2                !
 ! D106  D(22,23,24,41)        179.9995         estimate D2E/DX2                !
 ! D107  D(40,23,24,25)       -179.9994         estimate D2E/DX2                !
 ! D108  D(40,23,24,41)         -0.0004         estimate D2E/DX2                !
 ! D109  D(23,24,25,20)         -0.001          estimate D2E/DX2                !
 ! D110  D(23,24,25,42)        179.9969         estimate D2E/DX2                !
 ! D111  D(41,24,25,20)       -180.0            estimate D2E/DX2                !
 ! D112  D(41,24,25,42)         -0.0021         estimate D2E/DX2                !
 ! D113  D(21,26,27,28)          0.0039         estimate D2E/DX2                !
 ! D114  D(26,27,28,22)         -0.0039         estimate D2E/DX2                !
 --------------------------------------------------------------------------------
 Trust Radius=3.00D-01 FncErr=1.00D-07 GrdErr=1.00D-06 EigMax=2.50D+02 EigMin=1.00D-04
 Number of steps in this run=    249 maximum allowed number of steps=    252.
 GradGradGradGradGradGradGradGradGradGradGradGradGradGradGradGradGradGrad

 Leave Link  103 at Sat Jul 10 10:59:34 2021, MaxMem=  5368709120 cpu:               0.2 elap:               0.0
 (Enter /home/zc/g16/l202.exe)
                          Input orientation:                          
 ---------------------------------------------------------------------
 Center     Atomic      Atomic             Coordinates (Angstroms)
 Number     Number       Type             X           Y           Z
 ---------------------------------------------------------------------
      1          6           0       -3.115540    0.414387   -0.000407
      2          6           0       -3.374792   -0.992851    0.000289
      3          6           0       -4.658327   -1.538723    0.000453
      4          6           0       -5.723855   -0.612160    0.000055
      5          6           0       -5.465955    0.794213   -0.000586
      6          6           0       -4.180296    1.340759   -0.000937
      7          6           0       -1.708662    0.696810   -0.000429
      8          6           0       -0.913907   -0.424369    0.000184
      9         16           0       -1.871161   -1.910052    0.000917
     10          6           0       -7.138876   -0.893139    0.000226
     11          6           0       -7.907367    0.231762   -0.000241
     12         16           0       -6.973067    1.707729   -0.000869
     13          6           0       -3.919016    2.822147   -0.001462
     14          6           0       -4.917639   -3.020866    0.001270
     15          6           0        0.528206   -0.503994    0.000320
     16          6           0        1.331810   -1.632880    0.000288
     17          6           0        2.717115   -1.342202    0.000379
     18          6           0        2.999749    0.015268    0.000527
     19         16           0        1.507988    0.942479    0.000505
     20          6           0        4.290384    0.690788    0.000710
     21          6           0        5.538284   -0.039895   -0.000158
     22          6           0        6.811964    0.672891    0.000014
     23          6           0        6.851549    2.096062    0.001051
     24          6           0        5.650321    2.763074    0.001866
     25          6           0        4.403366    2.075429    0.001707
     26          7           0        5.690649   -1.366461   -0.001191
     27         16           0        7.301961   -1.679402   -0.001954
     28          7           0        7.872539   -0.142215   -0.000893
     29          1           0       -1.298783    1.707095   -0.000882
     30          1           0       -7.556653   -1.899940    0.000725
     31          1           0       -8.995127    0.291965   -0.000200
     32          1           0       -3.333866    3.122528   -0.886054
     33          1           0       -4.851982    3.402563   -0.005538
     34          1           0       -3.340473    3.124300    0.886914
     35          1           0       -3.983888   -3.600321   -0.001071
     36          1           0       -5.496520   -3.322839    0.889361
     37          1           0       -5.501062   -3.323027   -0.883745
     38          1           0        0.927624   -2.646018    0.000153
     39          1           0        3.504056   -2.092326    0.000316
     40          1           0        7.811027    2.613548    0.001174
     41          1           0        5.636259    3.855171    0.002682
     42          1           0        3.494442    2.680927    0.002450
 ---------------------------------------------------------------------
                    Distance matrix (angstroms):
                    1          2          3          4          5
     1  C    0.000000
     2  C    1.430920   0.000000
     3  C    2.488942   1.394790   0.000000
     4  C    2.803053   2.379711   1.412044   0.000000
     5  C    2.380907   2.750738   2.468776   1.429824   0.000000
     6  C    1.411336   2.468719   2.918892   2.489271   1.397008
     7  C    1.434945   2.372961   3.701099   4.223172   3.758555
     8  C    2.355992   2.525693   3.906721   4.813612   4.712333
     9  S    2.636569   1.761296   2.811793   4.065437   4.498399
    10  C    4.230468   3.765404   2.563182   1.442648   2.376094
    11  C    4.795306   4.695095   3.700119   2.340925   2.505363
    12  S    4.068568   4.498968   3.987164   2.634847   1.762356
    13  C    2.538283   3.853621   4.423095   3.879679   2.550595
    14  C    3.879243   2.548180   1.504657   2.540049   3.854281
    15  C    3.757700   3.933494   5.288742   6.252997   6.133132
    16  C    4.895940   4.749920   5.990877   7.129115   7.218060
    17  C    6.091426   6.101916   7.378060   8.472481   8.457358
    18  C    6.128300   6.453765   7.814155   8.746138   8.501465
    19  S    4.653589   5.252337   6.646789   7.397057   6.975519
    20  C    7.411080   7.847902   9.222264  10.098646   9.756887
    21  C    8.665740   8.963875  10.306181  11.276669  11.035806
    22  C    9.930869  10.322049  11.681559  12.601512  12.278518
    23  C   10.107962  10.682670  12.070166  12.863718  12.386110
    24  C    9.075057   9.775461  11.170214  11.864404  11.289287
    25  C    7.700196   8.361464   9.755838  10.477774   9.952136
    26  N    8.984452   9.073137  10.350410  11.439400  11.363904
    27  S   10.625831  10.698804  11.961116  13.069464  13.005324
    28  N   11.002167  11.279452  12.608443  13.604513  13.371325
    29  H    2.229731   3.405807   4.671389   4.996019   4.265991
    30  H    5.007953   4.279109   2.920748   2.239984   3.410202
    31  H    5.880861   5.765320   4.707362   3.393916   3.564731
    32  H    2.857633   4.209943   4.926190   4.521629   3.278858
    33  H    3.456075   4.637002   4.945083   4.108308   2.679641
    34  H    2.860343   4.211676   4.926087   4.519752   3.276375
    35  H    4.107543   2.677667   2.169114   3.457831   4.637721
    36  H    4.519691   3.274297   2.162359   2.861875   4.212251
    37  H    4.520980   3.276013   2.162348   2.859989   4.211041
    38  H    5.070824   4.609094   5.694642   6.955484   7.260375
    39  H    7.078323   6.966161   8.181135   9.345867   9.423015
    40  H   11.145680  11.752815  13.142532  13.913958  13.401053
    41  H    9.403882  10.232417  11.622074  12.206934  11.516450
    42  H    6.987780   7.789931   9.180038   9.788842   9.156878
                    6          7          8          9         10
     6  C    0.000000
     7  C    2.554143   0.000000
     8  C    3.712812   1.374292   0.000000
     9  S    3.987465   2.611922   1.767368   0.000000
    10  C    3.707222   5.658194   6.242594   5.364973   0.000000
    11  C    3.888564   6.216125   7.024172   6.404932   1.362344
    12  S    2.816778   5.360589   6.423337   6.254421   2.606148
    13  C    1.504253   3.066386   4.423861   5.156299   4.916386
    14  C    4.423511   4.911074   4.771967   3.242674   3.075893
    15  C    5.056986   2.538801   1.444310   2.781000   7.676951
    16  C    6.263054   3.830395   2.550244   3.214941   8.502925
    17  C    7.400849   4.872892   3.745229   4.623281   9.866216
    18  C    7.301368   4.757482   3.938272   5.237616  10.179240
    19  S    5.702210   3.226018   2.780980   4.422169   8.839556
    20  C    8.495580   5.999049   5.322426   6.687975  11.538492
    21  C    9.816160   7.284295   6.463636   7.641817  12.705842
    22  C   11.012531   8.520660   7.803401   9.059153  14.038461
    23  C   11.057671   8.673818   8.164244   9.598678  14.306198
    24  C    9.932976   7.643565   7.297183   8.854987  13.301558
    25  C    8.615045   6.265579   5.875575   7.433287  11.917875
    26  N   10.235458   7.681594   6.671409   7.581324  12.838253
    27  S   11.872809   9.318675   8.311173   9.176022  14.462226
    28  N   12.143724   9.617868   8.790975   9.902774  15.030185
    29  H    2.904706   1.090265   2.165934   3.662154   6.392801
    30  H    4.679949   6.398602   6.804659   5.685501   1.090040
    31  H    4.927734   7.297703   8.112906   7.456525   2.202303
    32  H    2.162077   3.051185   4.384301   5.315363   5.602604
    33  H    2.168460   4.147479   5.491254   6.091733   4.866515
    34  H    2.162082   3.056615   4.389483   5.318700   5.599455
    35  H    4.944982   4.862303   4.417177   2.705666   4.157257
    36  H    4.926888   5.594388   5.494734   3.991056   3.064529
    37  H    4.926933   5.596573   5.497776   3.994409   3.060751
    38  H    6.479602   4.257288   2.885647   2.893932   8.254757
    39  H    8.416373   5.911997   4.722338   5.378307  10.710278
    40  H   12.058682   9.710735   9.238691  10.686801  15.355665
    41  H   10.133461   7.995193   7.824266   9.465683  13.629033
    42  H    7.790871   5.568574   5.392255   7.061642  11.217906
                   11         12         13         14         15
    11  C    0.000000
    12  S    1.746824   0.000000
    13  C    4.755738   3.251024   0.000000
    14  C    4.417925   5.156006   5.927736   0.000000
    15  C    8.467599   7.820538   5.553467   5.999323   0.000000
    16  C    9.425459   8.951573   6.886105   6.401728   1.385699
    17  C   10.740437  10.158824   7.834542   7.817121   2.343910
    18  C   10.909264  10.115408   7.466450   8.479572   2.525502
    19  S    9.442141   8.515510   5.743303   7.549622   1.747071
    20  C   12.206385  11.309266   8.481565   9.927944   3.947339
    21  C   13.448395  12.632818   9.880881  10.872558   5.031528
    22  C   14.725940  13.823819  10.944096  12.297456   6.393018
    23  C   14.876196  13.830069  10.795012  12.833423   6.837028
    24  C   13.791970  12.667426   9.569520  12.047230   6.075343
    25  C   12.448022  11.382374   8.355815  10.623246   4.655136
    26  N   13.691616  13.031514  10.482848  10.736519   5.233992
    27  S   15.328934  14.671369  12.090255  12.293013   6.874980
    28  N   15.784337  14.960425  12.158463  13.110122   7.353238
    29  H    6.771262   5.674284   2.847624   5.953968   2.868241
    30  H    2.160360   3.654566   5.960748   2.867206   8.204487
    31  H    1.089425   2.468424   5.671748   5.253643   9.556538
    32  H    5.482527   4.003622   1.102330   6.406011   5.371491
    33  H    4.403338   2.715048   1.098783   6.423768   6.648883
    34  H    5.478169   3.998821   1.102370   6.405848   5.377476
    35  H    5.484391   6.091846   6.422796   1.098938   5.472315
    36  H    4.386201   5.317830   6.406476   1.102269   6.710708
    37  H    4.382626   5.315522   6.406595   1.102241   6.714208
    38  H    9.291861   9.020866   7.306897   5.857270   2.178945
    39  H   11.645684  11.144978   8.902474   8.472729   3.373201
    40  H   15.897824  14.811818  11.731898  13.919970   7.922029
    41  H   14.019947  12.790880   9.610954  12.596216   6.715246
    42  H   11.661889  10.512653   7.414804  10.162360   4.352273
                   16         17         18         19         20
    16  C    0.000000
    17  C    1.415473   0.000000
    18  C    2.344869   1.386581   0.000000
    19  S    2.581378   2.584909   1.756437   0.000000
    20  C    3.761993   2.570647   1.456731   2.793757   0.000000
    21  C    4.498002   3.107249   2.539134   4.148294   1.446082
    22  C    5.945475   4.563813   3.868521   5.310823   2.521644
    23  C    6.661271   5.377286   4.377907   5.466662   2.921363
    24  C    6.162301   5.045492   3.817849   4.524764   2.478669
    25  C    4.815186   3.810990   2.492871   3.109146   1.389243
    26  N    4.366974   2.973633   3.024917   4.777642   2.488578
    27  S    5.970333   4.597230   4.623953   6.359590   3.832415
    28  N    6.708444   5.293238   4.875334   6.456320   3.677734
    29  H    4.251524   5.042385   4.619487   2.909055   5.680816
    30  H    8.892474  10.288896  10.728730   9.499845  12.127001
    31  H   10.504792  11.825697  11.998067  10.523241  13.291496
    32  H    6.720717   7.571918   7.110258   5.383507   8.051639
    33  H    7.974648   8.933312   8.551227   6.819184   9.536069
    34  H    6.726596   7.578256   7.116894   5.390143   8.058369
    35  H    5.668110   7.071248   7.864075   7.127253   9.320794
    36  H    7.090310   8.495705   9.171672   8.249008  10.615196
    37  H    7.094100   8.499634   9.175508   8.252468  10.619105
    38  H    1.090786   2.214094   3.372854   3.635125   4.737344
    39  H    2.220303   1.087181   2.167090   3.632400   2.892064
    40  H    7.746767   6.449488   5.468039   6.520795   4.011475
    41  H    6.974739   5.961048   4.657901   5.052366   3.438707
    42  H    4.825548   4.097537   2.711174   2.639736   2.143404
                   21         22         23         24         25
    21  C    0.000000
    22  C    1.459563   0.000000
    23  C    2.507385   1.423722   0.000000
    24  C    2.805208   2.391293   1.373992   0.000000
    25  C    2.400550   2.787196   2.448270   1.423992   0.000000
    26  N    1.335288   2.327296   3.651953   4.129733   3.674740
    27  S    2.408016   2.402787   3.802237   4.739570   4.743482
    28  N    2.336497   1.337617   2.460144   3.657727   4.117416
    29  H    7.056732   8.176417   8.159608   7.028879   5.714034
    30  H   13.226381  14.597144  14.952067  14.005994  12.603397
    31  H   14.537199  15.811680  15.949041  14.852459  13.516670
    32  H    9.460485  10.474908  10.275372   9.035111   7.858072
    33  H   10.945692  11.979097  11.776231  10.521757   9.350016
    34  H    9.467384  10.481793  10.281991   9.041470   7.864526
    35  H   10.166041  11.610804  12.241547  11.546029  10.127200
    36  H   11.547115  12.971337  13.514007  12.730988  11.310923
    37  H   11.551054  12.975323  13.518002  12.734923  11.314815
    38  H    5.296231   6.755784   7.588163   7.180679   5.862836
    39  H    2.889733   4.311459   5.361744   5.308612   4.263677
    40  H    3.493726   2.182723   1.090133   2.165874   3.449888
    41  H    3.896299   3.392521   2.138083   1.092188   2.165065
    42  H    3.402965   3.877908   3.407673   2.157444   1.092141
                   26         27         28         29         30
    26  N    0.000000
    27  S    1.641420   0.000000
    28  N    2.501884   1.639666   0.000000
    29  H    7.635372   9.243439   9.355912   0.000000
    30  H   13.258040  14.860251  15.528991   7.222994   0.000000
    31  H   14.779120  16.415888  16.873253   7.825363   2.621766
    32  H   10.118096  11.703033  11.705792   2.632213   6.621442
    33  H   11.571114  13.173637  13.209046   3.936986   5.952464
    34  H   10.125059  11.710126  11.712812   2.639157   6.618496
    35  H    9.929088  11.448158  12.350440   5.947979   3.956760
    36  H   11.391806  12.934313  13.771008   6.611639   2.656777
    37  H   11.395677  12.938178  13.774984   6.613677   2.651965
    38  H    4.931904   6.447210   7.382471   4.889426   8.517018
    39  H    2.303925   3.820287   4.783992   6.123958  11.062382
    40  H    4.509599   4.323029   2.756450   9.154797  16.016778
    41  H    5.221917   5.779800   4.580399   7.260100  14.393548
    42  H    4.604855   5.788755   5.209403   4.891152  11.962903
                   31         32         33         34         35
    31  H    0.000000
    32  H    6.391142   0.000000
    33  H    5.180878   1.777190   0.000000
    34  H    6.386251   1.772981   1.777234   0.000000
    35  H    6.345267   6.811932   7.056486   6.813445   0.000000
    36  H    5.108657   7.026516   6.815226   6.798099   1.777054
    37  H    5.104636   6.800141   6.813671   7.026479   1.777026
    38  H   10.348562   7.226464   8.365955   7.231844   5.003363
    39  H   12.724560   8.645087  10.000860   8.651406   7.638282
    40  H   16.965747  11.191732  12.687568  11.198275  13.331624
    41  H   15.059014   9.043769  10.498006   9.049738  12.170933
    42  H   12.715993   6.900017   8.377566   6.906151   9.766243
                   36         37         38         39         40
    36  H    0.000000
    37  H    1.773112   0.000000
    38  H    6.520614   6.524387   0.000000
    39  H    9.127701   9.131722   2.635256   0.000000
    40  H   14.598643  14.602661   8.662810   6.379283   0.000000
    41  H   13.275873  13.279767   8.027248   6.318150   2.504246
    42  H   10.847544  10.851355   5.913113   4.773263   4.317111
                   41         42
    41  H    0.000000
    42  H    2.442587   0.000000
 Stoichiometry    C22H14N2S4
 Framework group  C1[X(C22H14N2S4)]
 Deg. of freedom   120
 Full point group                 C1      NOp   1
 Largest Abelian subgroup         C1      NOp   1
 Largest concise Abelian subgroup C1      NOp   1
                         Standard orientation:                         
 ---------------------------------------------------------------------
 Center     Atomic      Atomic             Coordinates (Angstroms)
 Number     Number       Type             X           Y           Z
 ---------------------------------------------------------------------
      1          6           0       -3.115540    0.414387   -0.000407
      2          6           0       -3.374792   -0.992851    0.000289
      3          6           0       -4.658327   -1.538723    0.000453
      4          6           0       -5.723855   -0.612160    0.000055
      5          6           0       -5.465955    0.794213   -0.000586
      6          6           0       -4.180296    1.340759   -0.000937
      7          6           0       -1.708662    0.696810   -0.000429
      8          6           0       -0.913907   -0.424369    0.000184
      9         16           0       -1.871161   -1.910052    0.000917
     10          6           0       -7.138876   -0.893139    0.000226
     11          6           0       -7.907367    0.231762   -0.000241
     12         16           0       -6.973067    1.707729   -0.000869
     13          6           0       -3.919016    2.822147   -0.001462
     14          6           0       -4.917639   -3.020866    0.001270
     15          6           0        0.528206   -0.503994    0.000320
     16          6           0        1.331810   -1.632880    0.000288
     17          6           0        2.717115   -1.342202    0.000379
     18          6           0        2.999749    0.015268    0.000527
     19         16           0        1.507988    0.942479    0.000505
     20          6           0        4.290384    0.690788    0.000710
     21          6           0        5.538284   -0.039895   -0.000158
     22          6           0        6.811964    0.672891    0.000014
     23          6           0        6.851549    2.096062    0.001051
     24          6           0        5.650321    2.763074    0.001866
     25          6           0        4.403366    2.075429    0.001707
     26          7           0        5.690649   -1.366461   -0.001191
     27         16           0        7.301961   -1.679402   -0.001954
     28          7           0        7.872539   -0.142215   -0.000893
     29          1           0       -1.298783    1.707095   -0.000882
     30          1           0       -7.556653   -1.899940    0.000725
     31          1           0       -8.995127    0.291965   -0.000200
     32          1           0       -3.333866    3.122528   -0.886054
     33          1           0       -4.851982    3.402563   -0.005538
     34          1           0       -3.340473    3.124300    0.886914
     35          1           0       -3.983888   -3.600321   -0.001071
     36          1           0       -5.496520   -3.322839    0.889361
     37          1           0       -5.501062   -3.323027   -0.883745
     38          1           0        0.927624   -2.646018    0.000153
     39          1           0        3.504056   -2.092326    0.000316
     40          1           0        7.811027    2.613548    0.001174
     41          1           0        5.636259    3.855171    0.002682
     42          1           0        3.494442    2.680927    0.002450
 ---------------------------------------------------------------------
 Rotational constants (GHZ):           0.4884767           0.0457228           0.0418313
 Leave Link  202 at Sat Jul 10 10:59:34 2021, MaxMem=  5368709120 cpu:               0.1 elap:               0.0
 (Enter /home/zc/g16/l301.exe)
 Standard basis: def2SVP (5D, 7F)
 Ernie: Thresh=  0.10000D-02 Tol=  0.10000D-05 Strict=F.
 There are   506 symmetry adapted cartesian basis functions of A   symmetry.
 There are   478 symmetry adapted basis functions of A   symmetry.
   478 basis functions,   846 primitive gaussians,   506 cartesian basis functions
   112 alpha electrons      112 beta electrons
       nuclear repulsion energy      2851.5592788615 Hartrees.
 IExCor=  402 DFT=T Ex+Corr=B3LYP ExCW=0 ScaHFX=  0.200000
 ScaDFX=  0.800000  0.720000  1.000000  0.810000 ScalE2=  1.000000  1.000000
 IRadAn=      5 IRanWt=     -1 IRanGd=            0 ICorTp=0 IEmpDi=141
 NAtoms=   42 NActive=   42 NUniq=   42 SFac= 1.00D+00 NAtFMM=   60 NAOKFM=F Big=F
 Integral buffers will be    131072 words long.
 Raffenetti 2 integral format.
 Two-electron integral symmetry is turned on.
 R6Disp:  Grimme-D3(BJ) Dispersion energy=       -0.1207151486 Hartrees.
 Nuclear repulsion after empirical dispersion term =     2851.4385637128 Hartrees.
 ------------------------------------------------------------------------------
 Polarizable Continuum Model (PCM)
 =================================
 Model                : PCM.
 Atomic radii         : UFF (Universal Force Field).
 Polarization charges : Total charges.
 Charge compensation  : None.
 Solution method      : On-the-fly selection.
 Cavity type          : Scaled VdW (van der Waals Surface) (Alpha=1.100).
 Cavity algorithm     : GePol (No added spheres)
                        Default sphere list used, NSphG=   42.
                        Lebedev-Laikov grids with approx.  5.0 points / Ang**2.
                        Smoothing algorithm: York/Karplus (Gamma=1.0000).
                        Polarization charges: spherical gaussians, with
                                              point-specific exponents (IZeta= 3).
                        Self-potential: point-specific (ISelfS= 7).
                        Self-field    : sphere-specific E.n sum rule (ISelfD= 2).
 1st derivatives      : Analytical E(r).r(x)/FMM algorithm (CHGder, D1EAlg=3).
                        Cavity 1st derivative terms included.
 Solvent              : DiPhenylEther, Eps=   3.730000 Eps(inf)=   2.492294
 ------------------------------------------------------------------------------
 GePol: Number of generator spheres                  =      42
 GePol: Total number of spheres                      =      42
 GePol: Number of exposed spheres                    =      42 (100.00%)
 GePol: Number of points                             =    3639
 GePol: Average weight of points                     =       0.13
 GePol: Minimum weight of points                     =   0.24D-08
 GePol: Maximum weight of points                     =    0.20577
 GePol: Number of points with low weight             =     197
 GePol: Fraction of low-weight points (<1% of avg)   =       5.41%
 GePol: Cavity surface area                          =    457.962 Ang**2
 GePol: Cavity volume                                =    522.185 Ang**3
 Leave Link  301 at Sat Jul 10 10:59:34 2021, MaxMem=  5368709120 cpu:               1.4 elap:               0.0
 (Enter /home/zc/g16/l302.exe)
 NPDir=0 NMtPBC=     1 NCelOv=     1 NCel=       1 NClECP=     1 NCelD=      1
         NCelK=      1 NCelE2=     1 NClLst=     1 CellRange=     0.0.
 One-electron integrals computed using PRISM.
 One-electron integral symmetry used in STVInt
   1 Symmetry operations used in ECPInt.
 ECPInt:  NShTT=   23871 NPrTT=   93111 LenC2=   17728 LenP2D=   44865.
 LDataN:  DoStor=T MaxTD1= 4 Len=   56
 NBasis=   478 RedAO= T EigKep=  1.97D-04  NBF=   478
 NBsUse=   478 1.00D-06 EigRej= -1.00D+00 NBFU=   478
 Precomputing XC quadrature grid using
 IXCGrd= 4 IRadAn=           5 IRanWt=          -1 IRanGd=           0 AccXCQ= 0.00D+00.
 Generated NRdTot=       0 NPtTot=           0 NUsed=           0 NTot=          32
 NSgBfM=   472   472   472   472   472 MxSgAt=    42 MxSgA2=    42.
 Leave Link  302 at Sat Jul 10 10:59:35 2021, MaxMem=  5368709120 cpu:              17.5 elap:               0.4
 (Enter /home/zc/g16/l303.exe)
 DipDrv:  MaxL=1.
 Leave Link  303 at Sat Jul 10 10:59:35 2021, MaxMem=  5368709120 cpu:               1.5 elap:               0.1
 (Enter /home/zc/g16/l401.exe)
 ExpMin= 1.22D-01 ExpMax= 9.18D+03 ExpMxC= 1.38D+03 IAcc=3 IRadAn=         5 AccDes= 0.00D+00
 Harris functional with IExCor=  402 and IRadAn=       5 diagonalized for initial guess.
 HarFok:  IExCor=  402 AccDes= 0.00D+00 IRadAn=         5 IDoV= 1 UseB2=F ITyADJ=14
 ICtDFT=  3500011 ScaDFX=  1.000000  1.000000  1.000000  1.000000
 FoFCou: FMM=F IPFlag=           0 FMFlag=      100000 FMFlg1=           0
         NFxFlg=           0 DoJE=T BraDBF=F KetDBF=T FulRan=T
         wScrn=  0.000000 ICntrl=       500 IOpCl=  0 I1Cent=   200000004 NGrid=           0
         NMat0=    1 NMatS0=      1 NMatT0=    0 NMatD0=    1 NMtDS0=    0 NMtDT0=    0
 Petite list used in FoFCou.
 Harris En= -2547.85392543243    
 JPrj=0 DoOrth=F DoCkMO=F.
 Leave Link  401 at Sat Jul 10 10:59:36 2021, MaxMem=  5368709120 cpu:              30.3 elap:               0.8
 (Enter /home/zc/g16/l502.exe)
 Integral symmetry usage will be decided dynamically.
 Closed shell SCF:
 Using DIIS extrapolation, IDIIS=  1040.
 NGot=  5368709120 LenX=  5368171602 LenY=  5367915060
 Requested convergence on RMS density matrix=1.00D-08 within 128 cycles.
 Requested convergence on MAX density matrix=1.00D-06.
 Requested convergence on             energy=1.00D-06.
 No special actions if energy rises.
 Fock matrices will be formed incrementally for  20 cycles.

 Cycle   1  Pass 1  IDiag  1:
 FoFJK:  IHMeth= 1 ICntrl=       0 DoSepK=F KAlg= 0 I1Cent=           0 FoldK=F
 IRaf= 650000000 NMat=       1 IRICut=       1 DoRegI=T DoRafI=F ISym2E= 0 IDoP0=0 IntGTp=1.
 FoFCou: FMM=F IPFlag=           0 FMFlag=      100000 FMFlg1=           0
         NFxFlg=           0 DoJE=F BraDBF=F KetDBF=F FulRan=T
         wScrn=  0.000000 ICntrl=         0 IOpCl=  0 I1Cent=           0 NGrid=           0
         NMat0=    1 NMatS0=      1 NMatT0=    0 NMatD0=    1 NMtDS0=    0 NMtDT0=    0
 Symmetry not used in FoFCou.
 Inv3:  Mode=1 IEnd=    39726963.
 Iteration    1 A*A^-1 deviation from unit magnitude is 3.44D-15 for    744.
 Iteration    1 A*A^-1 deviation from orthogonality  is 2.28D-15 for   3377   2398.
 Iteration    1 A^-1*A deviation from unit magnitude is 3.11D-15 for   3322.
 Iteration    1 A^-1*A deviation from orthogonality  is 2.10D-15 for   2086   1856.
 E= -2547.15568755614    
 DIIS: error= 3.35D-02 at cycle   1 NSaved=   1.
 NSaved= 1 IEnMin= 1 EnMin= -2547.15568755614     IErMin= 1 ErrMin= 3.35D-02
 ErrMax= 3.35D-02  0.00D+00 EMaxC= 1.00D-01 BMatC= 7.35D-01 BMatP= 7.35D-01
 IDIUse=3 WtCom= 6.65D-01 WtEn= 3.35D-01
 Coeff-Com:  0.100D+01
 Coeff-En:   0.100D+01
 Coeff:      0.100D+01
 Gap=     0.134 Goal=   None    Shift=    0.000
 GapD=    0.134 DampG=1.000 DampE=0.500 DampFc=0.5000 IDamp=-1.
 Damping current iteration by 5.00D-01
 RMSDP=5.89D-03 MaxDP=3.17D-01              OVMax= 4.13D-01

 Cycle   2  Pass 1  IDiag  1:
 RMSU=  2.90D-03    CP:  9.75D-01
 E= -2547.44732867878     Delta-E=       -0.291641122632 Rises=F Damp=T
 DIIS: error= 1.24D-02 at cycle   2 NSaved=   2.
 NSaved= 2 IEnMin= 2 EnMin= -2547.44732867878     IErMin= 2 ErrMin= 1.24D-02
 ErrMax= 1.24D-02  0.00D+00 EMaxC= 1.00D-01 BMatC= 7.33D-02 BMatP= 7.35D-01
 IDIUse=3 WtCom= 8.76D-01 WtEn= 1.24D-01
 Coeff-Com:  0.184D+00 0.816D+00
 Coeff-En:   0.310D+00 0.690D+00
 Coeff:      0.200D+00 0.800D+00
 Gap=     0.205 Goal=   None    Shift=    0.000
 RMSDP=2.04D-03 MaxDP=1.12D-01 DE=-2.92D-01 OVMax= 3.52D-01

 Cycle   3  Pass 1  IDiag  1:
 RMSU=  1.88D-03    CP:  9.56D-01  7.58D-01
 E= -2548.01515334852     Delta-E=       -0.567824669742 Rises=F Damp=F
 DIIS: error= 5.91D-03 at cycle   3 NSaved=   3.
 NSaved= 3 IEnMin= 3 EnMin= -2548.01515334852     IErMin= 3 ErrMin= 5.91D-03
 ErrMax= 5.91D-03  0.00D+00 EMaxC= 1.00D-01 BMatC= 2.57D-02 BMatP= 7.33D-02
 IDIUse=3 WtCom= 9.41D-01 WtEn= 5.91D-02
 Coeff-Com:  0.762D-01 0.358D+00 0.566D+00
 Coeff-En:   0.000D+00 0.000D+00 0.100D+01
 Coeff:      0.717D-01 0.337D+00 0.591D+00
 Gap=     0.092 Goal=   None    Shift=    0.000
 RMSDP=6.81D-04 MaxDP=3.11D-02 DE=-5.68D-01 OVMax= 5.77D-02

 Cycle   4  Pass 1  IDiag  1:
 RMSU=  6.07D-04    CP:  9.57D-01  8.00D-01  8.48D-01
 E= -2548.02974283066     Delta-E=       -0.014589482138 Rises=F Damp=F
 DIIS: error= 4.22D-03 at cycle   4 NSaved=   4.
 NSaved= 4 IEnMin= 4 EnMin= -2548.02974283066     IErMin= 4 ErrMin= 4.22D-03
 ErrMax= 4.22D-03  0.00D+00 EMaxC= 1.00D-01 BMatC= 1.24D-02 BMatP= 2.57D-02
 IDIUse=3 WtCom= 9.58D-01 WtEn= 4.22D-02
 Coeff-Com:  0.167D-01 0.521D-01 0.398D+00 0.533D+00
 Coeff-En:   0.000D+00 0.000D+00 0.350D+00 0.650D+00
 Coeff:      0.160D-01 0.499D-01 0.396D+00 0.538D+00
 Gap=     0.093 Goal=   None    Shift=    0.000
 RMSDP=3.19D-04 MaxDP=1.72D-02 DE=-1.46D-02 OVMax= 2.77D-02

 Cycle   5  Pass 1  IDiag  1:
 RMSU=  1.98D-04    CP:  9.56D-01  7.88D-01  8.99D-01  6.22D-01
 E= -2548.04172623588     Delta-E=       -0.011983405219 Rises=F Damp=F
 DIIS: error= 1.58D-03 at cycle   5 NSaved=   5.
 NSaved= 5 IEnMin= 5 EnMin= -2548.04172623588     IErMin= 5 ErrMin= 1.58D-03
 ErrMax= 1.58D-03  0.00D+00 EMaxC= 1.00D-01 BMatC= 1.23D-03 BMatP= 1.24D-02
 IDIUse=3 WtCom= 9.84D-01 WtEn= 1.58D-02
 Coeff-Com:  0.597D-02-0.636D-03 0.200D+00 0.338D+00 0.457D+00
 Coeff-En:   0.000D+00 0.000D+00 0.000D+00 0.279D-01 0.972D+00
 Coeff:      0.587D-02-0.626D-03 0.197D+00 0.333D+00 0.465D+00
 Gap=     0.093 Goal=   None    Shift=    0.000
 RMSDP=1.11D-04 MaxDP=6.45D-03 DE=-1.20D-02 OVMax= 1.08D-02

 Cycle   6  Pass 1  IDiag  1:
 RMSU=  7.04D-05    CP:  9.56D-01  7.83D-01  9.02D-01  6.81D-01  6.16D-01
 E= -2548.04284854280     Delta-E=       -0.001122306926 Rises=F Damp=F
 DIIS: error= 8.61D-04 at cycle   6 NSaved=   6.
 NSaved= 6 IEnMin= 6 EnMin= -2548.04284854280     IErMin= 6 ErrMin= 8.61D-04
 ErrMax= 8.61D-04  0.00D+00 EMaxC= 1.00D-01 BMatC= 1.96D-04 BMatP= 1.23D-03
 IDIUse=3 WtCom= 9.91D-01 WtEn= 8.61D-03
 Coeff-Com:  0.203D-02-0.104D-01 0.700D-01 0.139D+00 0.314D+00 0.485D+00
 Coeff-En:   0.000D+00 0.000D+00 0.000D+00 0.000D+00 0.134D+00 0.866D+00
 Coeff:      0.201D-02-0.103D-01 0.694D-01 0.138D+00 0.313D+00 0.488D+00
 Gap=     0.094 Goal=   None    Shift=    0.000
 RMSDP=4.09D-05 MaxDP=2.94D-03 DE=-1.12D-03 OVMax= 4.40D-03

 Cycle   7  Pass 1  IDiag  1:
 RMSU=  2.59D-05    CP:  9.56D-01  7.81D-01  9.06D-01  6.78D-01  6.55D-01
                    CP:  5.91D-01
 E= -2548.04302618136     Delta-E=       -0.000177638559 Rises=F Damp=F
 DIIS: error= 3.38D-04 at cycle   7 NSaved=   7.
 NSaved= 7 IEnMin= 7 EnMin= -2548.04302618136     IErMin= 7 ErrMin= 3.38D-04
 ErrMax= 3.38D-04  0.00D+00 EMaxC= 1.00D-01 BMatC= 2.55D-05 BMatP= 1.96D-04
 IDIUse=3 WtCom= 9.97D-01 WtEn= 3.38D-03
 Coeff-Com:  0.971D-03-0.692D-02 0.281D-01 0.592D-01 0.162D+00 0.326D+00
 Coeff-Com:  0.431D+00
 Coeff-En:   0.000D+00 0.000D+00 0.000D+00 0.000D+00 0.000D+00 0.765D-01
 Coeff-En:   0.923D+00
 Coeff:      0.967D-03-0.690D-02 0.280D-01 0.590D-01 0.162D+00 0.325D+00
 Coeff:      0.432D+00
 Gap=     0.094 Goal=   None    Shift=    0.000
 RMSDP=1.46D-05 MaxDP=1.19D-03 DE=-1.78D-04 OVMax= 1.60D-03

 Cycle   8  Pass 1  IDiag  1:
 RMSU=  1.01D-05    CP:  9.56D-01  7.81D-01  9.08D-01  6.77D-01  6.56D-01
                    CP:  6.27D-01  6.23D-01
 E= -2548.04305042440     Delta-E=       -0.000024243041 Rises=F Damp=F
 DIIS: error= 9.95D-05 at cycle   8 NSaved=   8.
 NSaved= 8 IEnMin= 8 EnMin= -2548.04305042440     IErMin= 8 ErrMin= 9.95D-05
 ErrMax= 9.95D-05  0.00D+00 EMaxC= 1.00D-01 BMatC= 2.37D-06 BMatP= 2.55D-05
 IDIUse=1 WtCom= 1.00D+00 WtEn= 0.00D+00
 Coeff-Com:  0.392D-03-0.255D-02 0.700D-02 0.141D-01 0.463D-01 0.114D+00
 Coeff-Com:  0.259D+00 0.561D+00
 Coeff:      0.392D-03-0.255D-02 0.700D-02 0.141D-01 0.463D-01 0.114D+00
 Coeff:      0.259D+00 0.561D+00
 Gap=     0.094 Goal=   None    Shift=    0.000
 RMSDP=4.98D-06 MaxDP=3.47D-04 DE=-2.42D-05 OVMax= 5.09D-04

 Cycle   9  Pass 1  IDiag  1:
 RMSU=  3.85D-06    CP:  9.56D-01  7.81D-01  9.08D-01  6.77D-01  6.55D-01
                    CP:  6.33D-01  6.79D-01  7.31D-01
 E= -2548.04305245626     Delta-E=       -0.000002031857 Rises=F Damp=F
 DIIS: error= 3.33D-05 at cycle   9 NSaved=   9.
 NSaved= 9 IEnMin= 9 EnMin= -2548.04305245626     IErMin= 9 ErrMin= 3.33D-05
 ErrMax= 3.33D-05  0.00D+00 EMaxC= 1.00D-01 BMatC= 5.19D-07 BMatP= 2.37D-06
 IDIUse=1 WtCom= 1.00D+00 WtEn= 0.00D+00
 Coeff-Com:  0.122D-03-0.573D-03-0.320D-03-0.151D-02 0.557D-03 0.154D-01
 Coeff-Com:  0.908D-01 0.369D+00 0.527D+00
 Coeff:      0.122D-03-0.573D-03-0.320D-03-0.151D-02 0.557D-03 0.154D-01
 Coeff:      0.908D-01 0.369D+00 0.527D+00
 Gap=     0.094 Goal=   None    Shift=    0.000
 RMSDP=1.93D-06 MaxDP=1.09D-04 DE=-2.03D-06 OVMax= 1.71D-04

 Cycle  10  Pass 1  IDiag  1:
 RMSU=  1.29D-06    CP:  9.56D-01  7.81D-01  9.08D-01  6.77D-01  6.57D-01
                    CP:  6.35D-01  6.90D-01  7.95D-01  7.13D-01
 E= -2548.04305297448     Delta-E=       -0.000000518226 Rises=F Damp=F
 DIIS: error= 6.95D-06 at cycle  10 NSaved=  10.
 NSaved=10 IEnMin=10 EnMin= -2548.04305297448     IErMin=10 ErrMin= 6.95D-06
 ErrMax= 6.95D-06  0.00D+00 EMaxC= 1.00D-01 BMatC= 3.31D-08 BMatP= 5.19D-07
 IDIUse=1 WtCom= 1.00D+00 WtEn= 0.00D+00
 Coeff-Com:  0.399D-04-0.621D-04-0.913D-03-0.246D-02-0.511D-02-0.410D-02
 Coeff-Com:  0.204D-01 0.140D+00 0.277D+00 0.575D+00
 Coeff:      0.399D-04-0.621D-04-0.913D-03-0.246D-02-0.511D-02-0.410D-02
 Coeff:      0.204D-01 0.140D+00 0.277D+00 0.575D+00
 Gap=     0.094 Goal=   None    Shift=    0.000
 RMSDP=6.12D-07 MaxDP=2.88D-05 DE=-5.18D-07 OVMax= 5.72D-05

 Cycle  11  Pass 1  IDiag  1:
 RMSU=  4.17D-07    CP:  9.56D-01  7.81D-01  9.08D-01  6.77D-01  6.57D-01
                    CP:  6.36D-01  6.91D-01  8.13D-01  7.50D-01  7.61D-01
 E= -2548.04305300848     Delta-E=       -0.000000033996 Rises=F Damp=F
 DIIS: error= 2.82D-06 at cycle  11 NSaved=  11.
 NSaved=11 IEnMin=11 EnMin= -2548.04305300848     IErMin=11 ErrMin= 2.82D-06
 ErrMax= 2.82D-06  0.00D+00 EMaxC= 1.00D-01 BMatC= 4.61D-09 BMatP= 3.31D-08
 IDIUse=1 WtCom= 1.00D+00 WtEn= 0.00D+00
 Coeff-Com:  0.127D-04 0.263D-04-0.438D-03-0.116D-02-0.294D-02-0.416D-02
 Coeff-Com: -0.220D-03 0.319D-01 0.875D-01 0.323D+00 0.567D+00
 Coeff:      0.127D-04 0.263D-04-0.438D-03-0.116D-02-0.294D-02-0.416D-02
 Coeff:     -0.220D-03 0.319D-01 0.875D-01 0.323D+00 0.567D+00
 Gap=     0.094 Goal=   None    Shift=    0.000
 RMSDP=2.27D-07 MaxDP=1.10D-05 DE=-3.40D-08 OVMax= 2.06D-05

 Cycle  12  Pass 1  IDiag  1:
 RMSU=  1.57D-07    CP:  9.56D-01  7.81D-01  9.08D-01  6.77D-01  6.57D-01
                    CP:  6.36D-01  6.95D-01  8.16D-01  7.53D-01  7.98D-01
                    CP:  6.97D-01
 E= -2548.04305301329     Delta-E=       -0.000000004807 Rises=F Damp=F
 DIIS: error= 7.59D-07 at cycle  12 NSaved=  12.
 NSaved=12 IEnMin=12 EnMin= -2548.04305301329     IErMin=12 ErrMin= 7.59D-07
 ErrMax= 7.59D-07  0.00D+00 EMaxC= 1.00D-01 BMatC= 4.32D-10 BMatP= 4.61D-09
 IDIUse=1 WtCom= 1.00D+00 WtEn= 0.00D+00
 Coeff-Com:  0.342D-05 0.184D-04-0.124D-03-0.330D-03-0.959D-03-0.158D-02
 Coeff-Com: -0.229D-02 0.125D-02 0.138D-01 0.100D+00 0.288D+00 0.602D+00
 Coeff:      0.342D-05 0.184D-04-0.124D-03-0.330D-03-0.959D-03-0.158D-02
 Coeff:     -0.229D-02 0.125D-02 0.138D-01 0.100D+00 0.288D+00 0.602D+00
 Gap=     0.094 Goal=   None    Shift=    0.000
 RMSDP=7.41D-08 MaxDP=3.22D-06 DE=-4.81D-09 OVMax= 7.34D-06

 Cycle  13  Pass 1  IDiag  1:
 RMSU=  5.56D-08    CP:  9.56D-01  7.81D-01  9.08D-01  6.77D-01  6.57D-01
                    CP:  6.37D-01  6.94D-01  8.17D-01  7.57D-01  8.04D-01
                    CP:  7.57D-01  7.97D-01
 E= -2548.04305301374     Delta-E=       -0.000000000452 Rises=F Damp=F
 DIIS: error= 4.09D-07 at cycle  13 NSaved=  13.
 NSaved=13 IEnMin=13 EnMin= -2548.04305301374     IErMin=13 ErrMin= 4.09D-07
 ErrMax= 4.09D-07  0.00D+00 EMaxC= 1.00D-01 BMatC= 7.52D-11 BMatP= 4.32D-10
 IDIUse=1 WtCom= 1.00D+00 WtEn= 0.00D+00
 Coeff-Com:  0.457D-06 0.635D-05-0.998D-05-0.285D-04-0.142D-03-0.290D-03
 Coeff-Com: -0.122D-02-0.340D-02-0.389D-02 0.124D-01 0.827D-01 0.342D+00
 Coeff-Com:  0.572D+00
 Coeff:      0.457D-06 0.635D-05-0.998D-05-0.285D-04-0.142D-03-0.290D-03
 Coeff:     -0.122D-02-0.340D-02-0.389D-02 0.124D-01 0.827D-01 0.342D+00
 Coeff:      0.572D+00
 Gap=     0.094 Goal=   None    Shift=    0.000
 RMSDP=2.88D-08 MaxDP=1.07D-06 DE=-4.52D-10 OVMax= 3.13D-06

 Cycle  14  Pass 1  IDiag  1:
 RMSU=  1.71D-08    CP:  9.56D-01  7.81D-01  9.08D-01  6.77D-01  6.57D-01
                    CP:  6.37D-01  6.94D-01  8.17D-01  7.59D-01  8.13D-01
                    CP:  7.61D-01  8.54D-01  7.14D-01
 E= -2548.04305301382     Delta-E=       -0.000000000077 Rises=F Damp=F
 DIIS: error= 8.31D-08 at cycle  14 NSaved=  14.
 NSaved=14 IEnMin=14 EnMin= -2548.04305301382     IErMin=14 ErrMin= 8.31D-08
 ErrMax= 8.31D-08  0.00D+00 EMaxC= 1.00D-01 BMatC= 6.53D-12 BMatP= 7.52D-11
 IDIUse=1 WtCom= 1.00D+00 WtEn= 0.00D+00
 Coeff-Com: -0.194D-06 0.145D-05 0.763D-05 0.204D-04 0.287D-04 0.192D-04
 Coeff-Com: -0.455D-03-0.213D-02-0.390D-02-0.456D-02 0.126D-01 0.116D+00
 Coeff-Com:  0.298D+00 0.585D+00
 Coeff:     -0.194D-06 0.145D-05 0.763D-05 0.204D-04 0.287D-04 0.192D-04
 Coeff:     -0.455D-03-0.213D-02-0.390D-02-0.456D-02 0.126D-01 0.116D+00
 Coeff:      0.298D+00 0.585D+00
 Gap=     0.094 Goal=   None    Shift=    0.000
 RMSDP=9.41D-09 MaxDP=5.43D-07 DE=-7.73D-11 OVMax= 1.13D-06

 Error on total polarization charges =  0.01471
 SCF Done:  E(RB3LYP) =  -2548.04305301     A.U. after   14 cycles
            NFock= 14  Conv=0.94D-08     -V/T= 2.0056
 KE= 2.533932037388D+03 PE=-1.170003225493D+04 EE= 3.766618600812D+03
 Leave Link  502 at Sat Jul 10 11:00:05 2021, MaxMem=  5368709120 cpu:            1123.6 elap:              29.5
 (Enter /home/zc/g16/l601.exe)
 Copying SCF densities to generalized density rwf, IOpCl= 0 IROHF=0.

 **********************************************************************

            Population analysis using the SCF density.

 **********************************************************************

 Orbital symmetries:
       Occupied  (A) (A) (A) (A) (A) (A) (A) (A) (A) (A) (A) (A)
                 (A) (A) (A) (A) (A) (A) (A) (A) (A) (A) (A) (A)
                 (A) (A) (A) (A) (A) (A) (A) (A) (A) (A) (A) (A)
                 (A) (A) (A) (A) (A) (A) (A) (A) (A) (A) (A) (A)
                 (A) (A) (A) (A) (A) (A) (A) (A) (A) (A) (A) (A)
                 (A) (A) (A) (A) (A) (A) (A) (A) (A) (A) (A) (A)
                 (A) (A) (A) (A) (A) (A) (A) (A) (A) (A) (A) (A)
                 (A) (A) (A) (A) (A) (A) (A) (A) (A) (A) (A) (A)
                 (A) (A) (A) (A) (A) (A) (A) (A) (A) (A) (A) (A)
                 (A) (A) (A) (A)
       Virtual   (A) (A) (A) (A) (A) (A) (A) (A) (A) (A) (A) (A)
                 (A) (A) (A) (A) (A) (A) (A) (A) (A) (A) (A) (A)
                 (A) (A) (A) (A) (A) (A) (A) (A) (A) (A) (A) (A)
                 (A) (A) (A) (A) (A) (A) (A) (A) (A) (A) (A) (A)
                 (A) (A) (A) (A) (A) (A) (A) (A) (A) (A) (A) (A)
                 (A) (A) (A) (A) (A) (A) (A) (A) (A) (A) (A) (A)
                 (A) (A) (A) (A) (A) (A) (A) (A) (A) (A) (A) (A)
                 (A) (A) (A) (A) (A) (A) (A) (A) (A) (A) (A) (A)
                 (A) (A) (A) (A) (A) (A) (A) (A) (A) (A) (A) (A)
                 (A) (A) (A) (A) (A) (A) (A) (A) (A) (A) (A) (A)
                 (A) (A) (A) (A) (A) (A) (A) (A) (A) (A) (A) (A)
                 (A) (A) (A) (A) (A) (A) (A) (A) (A) (A) (A) (A)
                 (A) (A) (A) (A) (A) (A) (A) (A) (A) (A) (A) (A)
                 (A) (A) (A) (A) (A) (A) (A) (A) (A) (A) (A) (A)
                 (A) (A) (A) (A) (A) (A) (A) (A) (A) (A) (A) (A)
                 (A) (A) (A) (A) (A) (A) (A) (A) (A) (A) (A) (A)
                 (A) (A) (A) (A) (A) (A) (A) (A) (A) (A) (A) (A)
                 (A) (A) (A) (A) (A) (A) (A) (A) (A) (A) (A) (A)
                 (A) (A) (A) (A) (A) (A) (A) (A) (A) (A) (A) (A)
                 (A) (A) (A) (A) (A) (A) (A) (A) (A) (A) (A) (A)
                 (A) (A) (A) (A) (A) (A) (A) (A) (A) (A) (A) (A)
                 (A) (A) (A) (A) (A) (A) (A) (A) (A) (A) (A) (A)
                 (A) (A) (A) (A) (A) (A) (A) (A) (A) (A) (A) (A)
                 (A) (A) (A) (A) (A) (A) (A) (A) (A) (A) (A) (A)
                 (A) (A) (A) (A) (A) (A) (A) (A) (A) (A) (A) (A)
                 (A) (A) (A) (A) (A) (A) (A) (A) (A) (A) (A) (A)
                 (A) (A) (A) (A) (A) (A) (A) (A) (A) (A) (A) (A)
                 (A) (A) (A) (A) (A) (A) (A) (A) (A) (A) (A) (A)
                 (A) (A) (A) (A) (A) (A) (A) (A) (A) (A) (A) (A)
                 (A) (A) (A) (A) (A) (A) (A) (A) (A) (A) (A) (A)
                 (A) (A) (A) (A) (A) (A)
 The electronic state is 1-A.
 Alpha  occ. eigenvalues --  -88.93833 -88.87987 -88.87173 -88.86994 -14.36371
 Alpha  occ. eigenvalues --  -14.36212 -10.24953 -10.24598 -10.23440 -10.23412
 Alpha  occ. eigenvalues --  -10.22981 -10.22831 -10.22032 -10.21880 -10.21852
 Alpha  occ. eigenvalues --  -10.21173 -10.21140 -10.20798 -10.20780 -10.20711
 Alpha  occ. eigenvalues --  -10.20277 -10.20189 -10.20116 -10.20083 -10.19829
 Alpha  occ. eigenvalues --  -10.19689 -10.19427 -10.19407  -8.03009  -7.97510
 Alpha  occ. eigenvalues --   -7.96676  -7.96525  -5.99942  -5.99354  -5.99128
 Alpha  occ. eigenvalues --   -5.94346  -5.93962  -5.93586  -5.93539  -5.93370
 Alpha  occ. eigenvalues --   -5.93163  -5.92994  -5.92689  -5.92574  -1.02090
 Alpha  occ. eigenvalues --   -0.90396  -0.89512  -0.88716  -0.87216  -0.85774
 Alpha  occ. eigenvalues --   -0.81465  -0.80462  -0.77945  -0.76519  -0.74890
 Alpha  occ. eigenvalues --   -0.73675  -0.73271  -0.71804  -0.71108  -0.69613
 Alpha  occ. eigenvalues --   -0.65493  -0.65130  -0.63073  -0.61902  -0.60248
 Alpha  occ. eigenvalues --   -0.57472  -0.56726  -0.55181  -0.54814  -0.54117
 Alpha  occ. eigenvalues --   -0.52656  -0.51533  -0.49649  -0.48834  -0.48045
 Alpha  occ. eigenvalues --   -0.46726  -0.46412  -0.46139  -0.44150  -0.43504
 Alpha  occ. eigenvalues --   -0.43248  -0.42218  -0.41846  -0.41681  -0.41487
 Alpha  occ. eigenvalues --   -0.41248  -0.40917  -0.39626  -0.39183  -0.38915
 Alpha  occ. eigenvalues --   -0.38890  -0.38251  -0.38205  -0.38190  -0.37758
 Alpha  occ. eigenvalues --   -0.36272  -0.35902  -0.35331  -0.34546  -0.34520
 Alpha  occ. eigenvalues --   -0.33006  -0.32626  -0.31389  -0.30411  -0.29119
 Alpha  occ. eigenvalues --   -0.27928  -0.27448  -0.26599  -0.25777  -0.24280
 Alpha  occ. eigenvalues --   -0.21372  -0.19553
 Alpha virt. eigenvalues --   -0.10193  -0.06872  -0.02979  -0.00695  -0.00274
 Alpha virt. eigenvalues --    0.00171   0.01459   0.01631   0.02022   0.03212
 Alpha virt. eigenvalues --    0.03701   0.05841   0.06606   0.06744   0.07548
 Alpha virt. eigenvalues --    0.07855   0.07996   0.08436   0.09095   0.09509
 Alpha virt. eigenvalues --    0.11125   0.12535   0.12632   0.12786   0.14190
 Alpha virt. eigenvalues --    0.14311   0.14359   0.15426   0.15447   0.16054
 Alpha virt. eigenvalues --    0.16765   0.17359   0.19072   0.20461   0.21685
 Alpha virt. eigenvalues --    0.22218   0.22359   0.23753   0.24966   0.25409
 Alpha virt. eigenvalues --    0.26242   0.26813   0.27176   0.27825   0.28045
 Alpha virt. eigenvalues --    0.29104   0.29609   0.30712   0.31031   0.32026
 Alpha virt. eigenvalues --    0.32155   0.32716   0.33719   0.34930   0.35014
 Alpha virt. eigenvalues --    0.35872   0.36617   0.36861   0.37556   0.37752
 Alpha virt. eigenvalues --    0.38921   0.39642   0.39734   0.40690   0.40948
 Alpha virt. eigenvalues --    0.41658   0.42175   0.43514   0.43829   0.43845
 Alpha virt. eigenvalues --    0.43999   0.44197   0.45238   0.45530   0.46264
 Alpha virt. eigenvalues --    0.46471   0.47101   0.47950   0.47984   0.48271
 Alpha virt. eigenvalues --    0.49672   0.49877   0.50619   0.51175   0.51569
 Alpha virt. eigenvalues --    0.51655   0.52634   0.52821   0.53410   0.54470
 Alpha virt. eigenvalues --    0.54925   0.55898   0.56571   0.56773   0.57767
 Alpha virt. eigenvalues --    0.57937   0.58229   0.58771   0.59201   0.59529
 Alpha virt. eigenvalues --    0.59867   0.60117   0.60487   0.60742   0.61870
 Alpha virt. eigenvalues --    0.62035   0.62321   0.62390   0.63567   0.64124
 Alpha virt. eigenvalues --    0.64417   0.64702   0.64736   0.65112   0.65450
 Alpha virt. eigenvalues --    0.65790   0.65967   0.66807   0.67025   0.67045
 Alpha virt. eigenvalues --    0.67560   0.68287   0.68408   0.68826   0.69164
 Alpha virt. eigenvalues --    0.69744   0.69765   0.70409   0.70738   0.71294
 Alpha virt. eigenvalues --    0.71362   0.71966   0.72109   0.72204   0.73025
 Alpha virt. eigenvalues --    0.73449   0.73834   0.74577   0.74647   0.74884
 Alpha virt. eigenvalues --    0.75598   0.76247   0.76499   0.76631   0.76983
 Alpha virt. eigenvalues --    0.78274   0.79722   0.80725   0.80843   0.81203
 Alpha virt. eigenvalues --    0.81933   0.83402   0.83474   0.84841   0.86026
 Alpha virt. eigenvalues --    0.86275   0.86812   0.87482   0.88313   0.89286
 Alpha virt. eigenvalues --    0.89590   0.90135   0.92073   0.92822   0.94287
 Alpha virt. eigenvalues --    0.94392   0.97068   1.00023   1.00645   1.02418
 Alpha virt. eigenvalues --    1.02968   1.03770   1.05000   1.06112   1.07762
 Alpha virt. eigenvalues --    1.08341   1.10845   1.12331   1.13931   1.15082
 Alpha virt. eigenvalues --    1.15378   1.15715   1.16229   1.17402   1.17946
 Alpha virt. eigenvalues --    1.18482   1.19222   1.19629   1.20507   1.20677
 Alpha virt. eigenvalues --    1.20961   1.21894   1.22306   1.22722   1.23024
 Alpha virt. eigenvalues --    1.23625   1.24647   1.25176   1.25571   1.27099
 Alpha virt. eigenvalues --    1.27270   1.27925   1.28155   1.28979   1.31138
 Alpha virt. eigenvalues --    1.32485   1.33202   1.33324   1.34108   1.36554
 Alpha virt. eigenvalues --    1.38151   1.38898   1.39423   1.41458   1.42144
 Alpha virt. eigenvalues --    1.42600   1.42809   1.46561   1.47881   1.51171
 Alpha virt. eigenvalues --    1.51907   1.52268   1.53062   1.53654   1.54140
 Alpha virt. eigenvalues --    1.54958   1.56636   1.62210   1.63255   1.63317
 Alpha virt. eigenvalues --    1.66339   1.68238   1.68629   1.68959   1.69214
 Alpha virt. eigenvalues --    1.70054   1.71092   1.71869   1.72821   1.74000
 Alpha virt. eigenvalues --    1.75308   1.75372   1.75552   1.75657   1.77614
 Alpha virt. eigenvalues --    1.78176   1.78222   1.78515   1.78924   1.80407
 Alpha virt. eigenvalues --    1.80949   1.81057   1.81847   1.84021   1.84227
 Alpha virt. eigenvalues --    1.84537   1.86714   1.88013   1.88346   1.89459
 Alpha virt. eigenvalues --    1.90055   1.91819   1.92301   1.92933   1.93822
 Alpha virt. eigenvalues --    1.94085   1.95845   1.96518   1.97625   1.97911
 Alpha virt. eigenvalues --    1.98900   1.99849   2.00393   2.02199   2.02610
 Alpha virt. eigenvalues --    2.02925   2.03497   2.05213   2.07536   2.07840
 Alpha virt. eigenvalues --    2.08086   2.08904   2.09218   2.11171   2.12358
 Alpha virt. eigenvalues --    2.13668   2.14123   2.14280   2.14514   2.15908
 Alpha virt. eigenvalues --    2.16366   2.17139   2.18777   2.20060   2.22474
 Alpha virt. eigenvalues --    2.23226   2.24020   2.24471   2.25649   2.25705
 Alpha virt. eigenvalues --    2.29978   2.30552   2.31194   2.32025   2.32732
[...]
 0253,0.00000002,0.00000733,0.00000999,-0.00000462,0.00000740,0.0000099
 5,0.00000460,0.09376574,-0.00028064,0.00013171,-0.00000009,0.00064918,
 0.00008330,0.00000074,-0.00013152,0.00016112,-0.00000010,0.00002611,-0
 .00009030,-0.00000002,0.00006599,0.00002011,-0.00000002,-0.00000183,0.
 00004603,-0.00000017,0.00011751,0.00008275,0.00000011,-0.00125527,0.00
 020735,0.00000024,0.00049287,0.00016394,-0.00000166,-0.00002183,0.0000
 4167,-0.00000003,-0.00004252,-0.00002277,0.,-0.00003739,0.00003572,0.0
 0000003,-0.00003113,-0.00000274,0.00000008,0.00001642,-0.00001904,-0.0
 0000003,-0.01022827,-0.01506143,-0.00000249,-0.09978347,-0.30587579,-0
 .00003552,0.00207060,0.00182518,0.00000011,0.00071138,0.00014447,-0.00
 000057,0.00113551,-0.00190057,-0.00000058,0.00009455,0.00022666,-0.000
 00007,-0.00002248,-0.00006095,0.,-0.00001850,0.00000995,0.00000003,-0.
 00002544,-0.00003690,-0.00000002,-0.00003932,0.00007527,0.00000004,0.0
 0000345,-0.00012228,-0.00000005,-0.00003047,0.00002038,0.00000003,0.00
 000039,0.00001917,0.,-0.00004827,-0.00003276,-0.00000002,-0.00005911,0
 .00007006,-0.00000004,-0.00000149,-0.00000397,0.00000001,-0.00000249,0
 .00000074,0.,0.00000483,0.00000668,-0.00000557,-0.00000246,0.00001531,
 -0.00000004,0.00000478,0.00000681,0.00000555,-0.00001034,0.00001368,0.
 00000003,-0.00001015,-0.00000909,0.00000531,-0.00001027,-0.00000902,-0
 .00000527,0.10701640,0.31965716,0.00000041,0.00000021,0.00007202,0.000
 00058,-0.00000043,-0.00055957,-0.00000040,0.00000010,-0.00005749,0.000
 00011,-0.00000033,0.00002541,0.00000030,0.00000024,-0.00001271,-0.0000
 0030,0.00000010,0.00011231,-0.00000083,0.00000041,-0.00009972,0.000000
 27,-0.00000005,-0.00370893,0.00000201,-0.00000025,0.00105490,-0.000000
 06,0.00000003,0.00003306,0.00000003,-0.00000007,-0.00000204,-0.0000000
 3,0.00000009,-0.00000907,-0.00000007,0.00000004,-0.00003996,0.,-0.0000
 0004,-0.00002173,-0.00000092,-0.00000089,0.00406914,-0.00001588,-0.000
 03742,-0.03263522,0.00000074,-0.00000053,0.00211390,-0.00000017,-0.000
 00119,0.00321528,-0.00000057,-0.00000058,0.00575174,0.00000024,0.00000
 019,0.00080424,-0.00000010,0.00000004,-0.00000691,0.,-0.00000016,-0.00
 000381,-0.00000016,0.00000020,0.00001628,0.00000051,0.00000014,-0.0002
 1248,-0.00000025,0.00000033,-0.00027446,0.00000013,-0.00000005,0.00002
 081,0.00000002,0.,0.00002084,-0.00000001,0.00000010,-0.00002289,-0.000
 00009,0.00000008,0.00013257,0.,0.,0.00000280,0.,0.,-0.00000224,-0.0000
 0491,0.00001272,0.00000162,0.00000002,0.00000007,-0.00000343,0.0000048
 8,-0.00001277,0.00000160,-0.00000008,-0.00000006,0.00001429,0.00000465
 ,0.00000655,-0.00000182,-0.00000460,-0.00000652,-0.00000180,0.00001449
 ,0.00003967,0.02243639,-0.00005709,0.00011765,-0.00000013,-0.00003830,
 -0.00000429,-0.00000001,0.00001651,0.00001214,-0.00000002,-0.00001307,
 0.00001167,0.,-0.00001950,-0.00000820,0.00000001,-0.00000105,-0.000034
 27,-0.00000001,-0.00020700,-0.00020050,0.00000017,-0.00002361,0.001022
 25,0.00000003,0.00011174,0.00005151,-0.00000003,0.00000118,0.00000358,
 0.,-0.00000925,-0.00000192,0.,0.00000260,-0.00000526,0.,-0.00000104,-0
 .00000539,0.00000003,-0.00000183,0.00000219,0.,-0.00414918,-0.00175323
 ,-0.00000025,-0.00985725,0.01818511,0.00000162,-0.20916877,0.15224374,
 0.00000523,0.00834541,-0.00589739,0.00000060,0.00202443,-0.00313098,-0
 .00000004,0.00042865,0.00074419,-0.00000038,0.00089365,-0.00172161,-0.
 00000110,0.00023709,-0.00013074,0.00000004,-0.00004310,-0.00005127,-0.
 00000003,-0.00002812,0.00013739,0.00000011,-0.00017266,-0.00001260,0.0
 0000002,-0.00464431,-0.00056787,0.00000203,-0.00215455,0.00082472,0.00
 000118,0.00080122,0.00087503,0.00000072,-0.00001160,0.00004731,0.,-0.0
 0000124,-0.00000039,0.,0.00000017,0.00000013,0.,0.00000014,0.00000237,
 -0.00000240,0.00000137,0.00000191,0.,0.00000013,0.00000238,0.00000238,
 0.00000187,-0.00000002,0.,-0.00000149,-0.00000140,-0.00000061,-0.00000
 148,-0.00000140,0.00000063,0.00119589,-0.00026087,-0.00000010,0.216549
 44,-0.00001865,0.00009971,-0.00000002,-0.00002392,-0.00000548,-0.00000
 002,0.00001914,0.00000823,-0.00000002,-0.00001460,0.00000656,0.,-0.000
 00801,-0.00000219,0.,-0.00001443,-0.00001388,-0.00000002,-0.00018754,-
 0.00010800,0.00000009,-0.00000485,0.00078905,-0.00000016,0.00009052,0.
 00001558,0.,0.00000515,0.00000087,0.,-0.00000652,0.00000055,0.,0.00000
 184,-0.00000332,0.,-0.00000093,-0.00000633,0.00000005,-0.00000081,0.00
 000103,0.,-0.00330150,-0.00090289,-0.00000066,-0.00809038,0.01118378,0
 .00000061,0.14880443,-0.20060949,-0.00001407,0.02069595,-0.01356945,-0
 .00000167,0.00023659,-0.00336300,-0.00000102,0.00012115,0.00119040,0.0
 0000110,-0.00079818,-0.00142502,-0.00000052,0.00017164,-0.00023713,-0.
 00000013,-0.00002094,0.00000398,-0.00000003,-0.00001422,0.00006309,0.,
 -0.00007293,-0.00003894,-0.00000021,0.00201045,-0.00071216,-0.00000311
 ,-0.00067210,0.00076146,0.00000058,0.00094192,0.00073937,0.00000060,-0
 .00002043,0.00006622,-0.00000008,-0.00000080,-0.00000016,0.,0.00000024
 ,0.00000021,0.,-0.00000025,0.00000166,-0.00000334,0.00000199,0.0000012
 5,0.,-0.00000026,0.00000166,0.00000331,0.00000144,-0.00000006,0.,-0.00
 000063,-0.00000042,-0.00000020,-0.00000063,-0.00000042,0.00000021,0.00
 084770,0.00010091,0.00000040,-0.16068543,0.20581081,0.00000029,0.00000
 005,-0.00018063,-0.00000006,-0.00000010,0.00000730,0.00000005,0.,0.000
 00180,-0.00000004,-0.00000001,-0.00000201,0.00000002,0.00000006,0.0000
 1280,-0.00000010,0.00000006,0.00001437,-0.00000020,-0.00000010,-0.0002
 5160,0.00000011,-0.00000007,0.00076008,0.00000008,0.00000006,0.0000199
 5,0.00000003,-0.00000002,0.00000257,0.00000001,0.00000002,-0.00000239,
 0.,0.,0.00000228,-0.00000002,-0.00000001,-0.00000145,-0.00000002,0.,-0
 .00000275,-0.00000121,-0.00000002,0.00336149,-0.00000160,0.00000264,0.
 00262546,0.00000736,-0.00001779,-0.03640786,0.00000155,-0.00000129,0.0
 0495374,-0.00000082,-0.00000021,0.00583726,0.00000056,0.00000073,-0.00
 395028,-0.00000077,0.00000108,0.00037506,-0.00000027,-0.00000087,0.000
 35291,-0.00000027,0.00000048,-0.00005595,0.00000077,-0.00000018,0.0001
 9381,-0.00000058,-0.00000083,-0.00008543,0.00000390,-0.00000005,-0.000
 81970,0.00000233,-0.00000088,-0.00008105,-0.00000138,-0.00000106,0.000
 01715,-0.00000005,0.00000015,0.00014653,0.,0.,0.00000164,0.,0.,-0.0000
 0091,0.00000052,0.00000389,-0.00000189,0.,0.,-0.00000105,-0.00000051,-
 0.00000389,-0.00000192,0.,0.,0.00000350,0.00000242,0.00000087,-0.00000
 076,-0.00000241,-0.00000086,-0.00000075,0.00000033,0.00000029,-0.00244
 995,-0.00000996,0.00001808,0.02561937,-0.00000156,0.00000082,0.,-0.000
 00482,-0.00000435,0.,0.00000130,0.00000541,0.,-0.00000150,0.00000147,0
 .,0.00000005,-0.00000471,0.,0.00000220,-0.00000540,0.,-0.00000315,0.00
 000297,0.,0.00001636,-0.00000589,-0.00000002,-0.00000577,0.00000240,0.
 ,-0.00000155,0.00000436,0.,-0.00000747,-0.00000403,0.,-0.00000008,0.00
 000130,0.,-0.00000005,-0.00000120,0.,-0.00000009,-0.00000004,0.,0.0000
 3917,0.00003439,-0.00000008,-0.00000334,-0.00004492,0.00000004,-0.0000
 4387,-0.00003268,-0.00000007,0.00006735,-0.00004360,-0.00000032,0.0000
 1412,0.00004497,0.00000018,0.00020168,0.00035059,0.00000005,0.00060821
 ,0.00068988,0.00000136,0.00331753,0.00259820,0.00000214,-0.28084483,-0
 .12285712,-0.00002451,-0.01580176,-0.01459686,-0.00000497,-0.00181302,
 0.00366751,0.00000526,0.00014150,0.00054359,0.00000054,0.00020316,-0.0
 0041231,-0.00000045,0.00045274,-0.00025519,-0.00000082,0.00000276,-0.0
 0000446,0.,-0.00000037,-0.00000048,0.,-0.00000006,-0.00000007,0.,0.000
 00134,0.00000047,0.00000025,-0.00000132,0.00000048,0.,0.00000134,0.000
 00049,-0.00000025,0.00000011,0.00000061,0.,-0.00000057,-0.00000066,0.0
 0000031,-0.00000058,-0.00000066,-0.00000031,-0.00000199,-0.00000836,0.
 00000002,0.00000665,0.00000539,-0.00000003,0.29315454,0.00001651,0.000
 00006,-0.00000001,0.00001073,-0.00000515,0.,-0.00000319,-0.00000576,0.
 ,0.00000168,-0.00000504,0.,0.00000458,0.00000882,0.,-0.00000966,0.0000
 1047,0.,-0.00001693,0.00000916,0.,0.00000616,-0.00001866,0.00000002,-0
 .00000178,-0.00000440,0.,0.00000277,-0.00000553,0.,0.00000874,0.000005
 53,0.,-0.00000135,-0.00000013,0.,-0.00000031,0.00000147,-0.00000001,0.
 00000027,-0.00000021,0.,-0.00004929,0.00010270,0.00000009,0.00011551,-
 0.00001493,-0.00000003,-0.00006887,-0.00009716,0.00000005,0.00007273,0
 .00028735,0.00000088,-0.00011180,-0.00002557,-0.00000017,0.00030594,-0
 .00074164,-0.00000007,0.00296518,-0.00341905,-0.00000620,-0.02824957,-
 0.00946201,-0.00000264,-0.12285410,-0.12405754,-0.00003184,0.01531138,
 0.01186541,0.00000104,0.00262179,-0.00104019,-0.00000755,-0.00110149,-
 0.00163437,-0.00000139,-0.00045863,-0.00018151,0.00000041,0.00014216,0
 .00318515,0.00000483,-0.00000112,0.00000180,0.,0.00000057,0.00000052,0
 .,-0.00000001,0.,0.,-0.00000120,-0.00000082,0.00000030,0.00000107,-0.0
 0000069,0.,-0.00000119,-0.00000084,-0.00000030,-0.00000031,-0.00000023
 ,0.,0.00000061,0.00000075,-0.00000021,0.00000061,0.00000075,0.00000021
 ,0.00000262,0.00000397,-0.00000002,0.00006776,0.00002412,-0.00000004,0
 .13110285,0.12398253,0.00000001,0.,0.00000910,0.,0.,-0.00000132,0.,0.,
 0.00000148,0.,0.,0.00000042,0.,0.,-0.00000041,0.,0.,-0.00000096,-0.000
 00002,0.00000003,0.00000148,0.00000007,-0.00000002,-0.00001410,0.,-0.0
 0000001,-0.00000376,0.,0.,-0.00000103,0.,0.,-0.00000085,0.,0.,0.000000
 42,-0.00000001,0.,0.00000167,0.,0.,0.00000022,-0.00000005,-0.00000022,
 -0.00006911,-0.00000020,0.00000009,0.00006954,0.00000018,0.00000034,-0
 .00004396,-0.00000062,0.00000068,-0.00104712,-0.00000030,-0.00000005,0
 .00017317,0.00000055,-0.00000007,-0.00070380,0.00000247,-0.00000562,0.
 00388835,-0.00002013,-0.00001009,0.00430214,-0.00002442,-0.00003218,-0
 .03592756,0.00001669,0.00000875,0.00486451,0.00000472,-0.00000774,0.00
 824935,-0.00000055,-0.00000213,0.00068490,-0.00000051,0.00000041,-0.00
 046038,-0.00000073,0.00000469,-0.00267417,0.,0.,-0.00001076,0.,0.,0.00
 000048,0.,0.,0.00000049,0.00000054,0.00000004,-0.00000040,0.,0.,0.0000
 0008,-0.00000053,-0.00000004,-0.00000041,0.,0.,0.00000056,0.00000044,0
 .00000014,-0.00000017,-0.00000044,-0.00000014,-0.00000016,0.00000001,0
 .,0.00002910,0.00000008,0.00000001,-0.00005264,0.00002379,0.00003789,0
 .02420386,0.00000046,0.00000776,0.,-0.00001196,-0.00000386,0.,0.000006
 02,0.00000515,0.,-0.00000528,0.00000374,0.,-0.00000293,-0.00000240,0.,
 0.00000158,-0.00001023,-0.00000002,-0.00001853,0.00000772,0.,0.0000524
 5,-0.00001653,0.,-0.00000307,0.00000337,0.,-0.00000017,0.00000492,0.,-
 0.00000846,-0.00000530,0.,0.00000106,0.00000054,0.,-0.00000063,-0.0000
 0222,0.00000003,0.00000051,0.00000011,0.,-0.00009626,0.00002131,0.0000
 0002,0.00004838,-0.00009740,0.00000008,-0.00040793,-0.00007408,-0.0000
 0013,0.00061435,-0.00103468,-0.00000081,0.00005517,0.00000179,0.000000
 06,-0.00453836,-0.00168585,0.00000125,-0.00089040,0.00045059,0.0000005
 3,-0.00441636,0.00159583,0.00000471,0.00395209,0.02832949,0.00002152,-
 0.05762305,0.00345908,0.00000697,0.00286040,-0.02787662,-0.00002088,0.
 00035669,-0.00015936,-0.00000021,-0.00017377,0.00054393,0.00000009,0.0
 0024941,0.00110508,0.00000100,0.00000152,-0.00000478,0.,-0.00000040,-0
 .00000013,0.,0.00000013,0.00000014,0.,0.00000042,0.00000080,-0.0000029
 2,-0.00000002,0.00000122,0.,0.00000040,0.00000083,0.00000291,0.0000000
 3,0.00000035,0.,-0.00000047,-0.00000022,-0.00000006,-0.00000047,-0.000
 00021,0.00000006,-0.00003460,-0.00000407,0.,-0.00001258,0.00000222,0.,
 0.00112900,-0.00055340,-0.00000198,0.05791844,-0.00003013,0.00000607,0
 .00000002,-0.00003447,0.00000385,0.,0.00001323,0.00001928,-0.00000003,
 -0.00000901,0.00001366,0.,-0.00000992,-0.00002422,0.,0.00002070,-0.000
 02914,-0.00000003,0.00000948,-0.00000931,0.,0.00004633,0.00002914,-0.0
 0000004,-0.00000101,0.00000990,0.00000001,-0.00000600,0.00001734,0.,-0
 .00002960,-0.00001665,0.,0.00000293,0.00000199,0.00000002,0.00000006,-
 0.00000606,0.00000003,-0.00000014,0.00000042,0.,-0.00006820,-0.0001333
 0,0.00000001,-0.00011553,0.00003451,0.00000003,-0.00009963,0.00008260,
 0.00000006,0.00023983,-0.00062396,-0.00000043,0.00006520,-0.00001756,-
 0.00000001,-0.00207913,0.00094631,-0.00000199,-0.00013683,0.00068936,0
 .00000072,0.00225418,0.00096991,-0.00000655,-0.00249293,-0.01016758,-0
 .00001121,0.00390638,-0.34221722,-0.00022567,0.00265643,-0.01004636,-0
 .00001101,-0.00016479,-0.00009143,0.00000002,0.00024946,-0.00012621,0.
 00000083,0.00001425,-0.00065676,-0.00000111,0.00000511,-0.00000867,0.0
 0000002,-0.00000163,-0.00000175,0.,0.,0.,0.,0.00000394,0.00000280,-0.0
 0000142,-0.00000323,0.00000260,-0.00000002,0.00000393,0.00000287,0.000
 00142,0.00000072,0.00000108,0.,-0.00000195,-0.00000232,0.00000089,-0.0
 0000196,-0.00000231,-0.00000088,-0.00002714,-0.00000902,0.,0.00001907,
 0.00002425,-0.00000006,-0.00014272,0.00086113,0.00000489,-0.00418881,0
 .35955085,-0.00000006,0.,0.00000034,-0.00000002,0.00000001,-0.00000096
 ,0.,0.00000002,-0.00000049,0.,0.00000001,-0.00000009,0.,-0.00000003,-0
 .00000067,0.00000003,-0.00000004,-0.00000004,0.00000005,-0.00000004,-0
 .00000686,-0.00000005,0.00000006,0.00000252,0.,0.00000003,0.00000356,-
 0.00000001,0.00000002,-0.00000034,-0.00000003,-0.00000002,-0.00000108,
 0.,0.,0.00000054,-0.00000001,0.,0.00000237,0.,0.,0.00000017,0.00000012
 ,-0.00000023,-0.00000306,-0.00000036,0.00000016,-0.00001403,0.00000022
 ,0.00000037,-0.00019757,-0.00000029,-0.00000059,0.00014320,-0.00000011
 ,-0.00000003,0.00002641,0.00000147,-0.00000169,0.00458057,-0.00000005,
 0.00000053,-0.00031103,0.00000530,-0.00000645,0.00886726,-0.00000165,-
 0.00001894,0.00572273,0.00000793,-0.00022580,-0.04030533,0.00000193,-0
 .00000314,0.00355148,-0.00000023,-0.00000007,0.00005068,-0.00000011,0.
 00000065,-0.00126611,0.00000008,-0.00000122,0.00080911,0.,0.,0.0000048
 9,0.,0.,0.00000059,0.,0.,0.00000049,0.00000046,0.00000045,-0.00000062,
 0.,0.,0.00000007,-0.00000044,-0.00000045,-0.00000064,0.,0.,0.00000064,
 0.00000053,0.00000014,-0.00000019,-0.00000053,-0.00000014,-0.00000019,
 0.,-0.00000001,0.00001722,0.00000003,0.00000004,0.00001601,-0.00000189
 ,0.00000473,-0.00552610,-0.00001104,0.00024885,0.02660454,0.00001232,-
 0.00000561,-0.00000001,0.00001528,0.00000174,0.,-0.00000512,-0.0000088
 9,0.00000001,0.00000474,-0.00000518,0.,0.00000338,0.00000933,0.,-0.000
 00686,0.00001154,0.00000002,0.00000381,0.00002058,0.00000002,0.0000163
 9,0.00005221,0.,-0.00000168,-0.00001783,0.,0.00000243,-0.00000733,0.,0
 .00001242,0.00000778,0.,-0.00000184,-0.00000110,0.,0.00000087,0.000002
 58,-0.00000002,-0.00000055,-0.00000053,0.,0.00027016,-0.00057726,-0.00
 000023,-0.00031074,-0.00009229,-0.00000002,0.00024162,0.00045241,-0.00
 000038,0.00007179,-0.00076269,-0.00000159,-0.00200701,-0.00131743,-0.0
 0000417,0.00464843,-0.00289227,-0.00000175,0.00079830,-0.00097759,0.00
 000152,0.00048401,-0.00099954,-0.00000092,-0.00293419,-0.00377520,-0.0
 0000063,-0.01833438,0.01642167,0.00001818,-0.25106448,0.13031321,0.000
 16520,0.00021153,0.00007623,0.00000021,0.00012967,0.00005042,-0.000000
 47,-0.00015275,0.00017280,0.00000023,0.00000362,-0.00001124,-0.0000000
 1,0.00000065,0.00000063,0.,-0.00000005,0.,0.,-0.00000189,-0.00000152,0
 .00000069,0.00000143,-0.00000088,0.,-0.00000188,-0.00000154,-0.0000007
 0,-0.00000010,-0.00000011,0.,0.00000061,0.00000077,-0.00000021,0.00000
 061,0.00000077,0.00000021,0.00002164,-0.00004204,0.00000013,-0.0000000
 4,0.00000117,-0.00000004,-0.00082336,0.00072200,0.00000092,0.00099718,
 0.00013352,-0.00000124,0.26769404,0.00000559,-0.00001066,-0.00000004,0
 .00000745,0.00004793,-0.00000005,0.00000583,-0.00003351,0.00000002,0.0
 0000470,0.00000089,0.,-0.00000364,0.00001508,0.,-0.00000450,0.00002969
 ,0.00000005,0.00003412,-0.00000973,0.00000004,-0.00007081,0.00014754,0
 .00000006,0.00006179,-0.00003157,0.00000002,0.00000923,-0.00002270,0.0
 0000001,0.00003566,0.00002100,0.,0.00000208,-0.00000763,-0.00000002,0.
 00000210,0.00000483,-0.00000003,0.00000040,0.00000053,0.,-0.00062938,-
 0.00056880,0.00000156,-0.00001105,0.00051538,0.00000008,0.00009689,0.0
 0039014,0.00000039,0.00183442,0.00039617,0.00000362,-0.00188662,-0.001
 08454,-0.00000537,0.02609633,-0.01216196,-0.00002067,-0.00231592,-0.00
 466303,-0.00000853,-0.00041859,-0.00071919,-0.00000025,-0.00277858,-0.
 00106409,-0.00000331,-0.01509622,0.01085662,0.00000936,0.13072785,-0.1
 4492523,-0.00012218,0.00132613,-0.00055068,-0.00000144,0.00025420,-0.0
 0052107,0.00000052,0.00007267,0.00046104,0.00000024,-0.00000289,0.0000
 2793,0.00000004,0.00000172,0.00000221,0.,0.00000033,0.00000015,0.,-0.0
 0000466,-0.00000188,0.00000255,0.00000498,-0.00000341,0.00000002,-0.00
 000463,-0.00000197,-0.00000256,-0.00000050,-0.00000472,0.,0.00000352,0
 .00000303,-0.00000152,0.00000355,0.00000302,0.00000151,-0.00005492,0.0
 0008653,-0.00000033,0.00010290,0.00010362,-0.00000010,-0.00063244,0.00
 036976,0.00000033,0.00017420,0.00091992,0.00000281,-0.13695328,0.15198
 333,-0.00000004,-0.00000001,0.00002185,-0.00000002,0.00000009,0.000001
 32,0.00000004,-0.00000001,0.00000820,0.,0.00000003,-0.00000015,-0.0000
 0003,-0.00000002,0.00000051,0.00000005,0.,-0.00000442,0.00000010,0.000
 00003,-0.00000159,0.00000011,0.00000021,-0.00002106,0.00000012,-0.0000
 0005,-0.00000428,0.,0.,-0.00000380,0.,0.,-0.00000238,0.,0.,0.00000183,
 -0.00000006,0.,0.00000810,0.,0.,0.00000135,-0.00000051,-0.00000134,-0.
 00075697,-0.00000107,0.00000088,-0.00002139,0.00000109,0.00000176,-0.0
 0012344,-0.00000108,0.00000310,-0.00461140,-0.00000510,-0.00000382,0.0
 0165475,0.00002108,-0.00001073,0.00540688,-0.00000052,-0.00000830,0.00
 746145,-0.00000035,0.00000010,-0.00023263,-0.00000002,-0.00000331,0.00
 424123,-0.00000556,0.00000046,0.00417791,0.00016661,-0.00012451,-0.038
 52717,0.00000129,-0.00000139,0.00092749,-0.00000010,0.00000057,-0.0012
 3380,0.00000020,0.00000020,0.00009385,0.00000004,-0.00000001,-0.000030
 60,0.,0.,0.00000123,0.,0.,0.00000124,0.00000127,0.00000063,-0.00000201
 ,-0.00000001,0.,-0.00000089,-0.00000122,-0.00000065,-0.00000208,0.,0.,
 0.00000154,0.00000097,0.00000054,-0.00000045,-0.00000096,-0.00000054,-
 0.00000045,-0.00000008,0.00000011,0.00018075,0.00000018,0.00000017,0.0
 0002592,-0.00000024,0.00000003,0.00005786,-0.00000119,0.00000265,-0.00
 277000,-0.00017496,0.00014314,0.02407567\\0.00001749,-0.00005507,-0.00
 000137,-0.00003513,0.00006646,0.00000095,-0.00001107,-0.00003446,-0.00
 000059,-0.00001303,0.00006872,-0.00000002,0.00010083,-0.00012095,0.000
 00149,-0.00000471,0.00002883,-0.00000101,0.00000542,0.00006410,-0.0000
 0015,-0.00012114,-0.00023326,0.00000022,0.00016618,0.00014390,-0.00000
 003,0.00001328,-0.00001971,-0.00000015,-0.00013383,-0.00019358,-0.0000
 0007,0.00000675,0.00026766,0.,0.00001339,0.00000567,0.00000029,-0.0000
 1125,-0.00000427,0.00000047,0.00012048,0.00021721,0.00000006,-0.000021
 38,-0.00005519,-0.00000004,0.00005129,-0.00000073,0.00000080,-0.000037
 38,0.00004371,-0.00000035,-0.00010152,-0.00017410,-0.00000054,0.000052
 73,-0.00004416,-0.00000055,0.00000248,0.00002352,-0.00000289,-0.000016
 67,0.00002182,-0.00000246,0.00003951,-0.00005041,-0.00000057,-0.000027
 75,0.00003948,-0.00000037,-0.00001579,0.00000678,0.00000046,-0.0000682
 3,0.00000418,0.00000665,0.00002013,-0.00005439,-0.00000724,0.00000096,
 0.00004816,0.00000656,-0.00000828,0.00000005,0.00000010,0.00000244,0.0
 0000077,0.00000007,0.00000205,0.00001049,-0.00000003,-0.00000449,-0.00
 000206,-0.00000062,-0.00000252,0.00000194,-0.00000117,-0.00000570,-0.0
 0000193,0.00000150,0.00000264,-0.00000127,-0.00000029,0.00000526,0.000
 00227,0.00000102,0.00000480,0.00000232,-0.00000073,0.00001394,-0.00000
 620,0.00000014,-0.00000811,-0.00002118,-0.00000006,-0.00000118,0.00000
 105,0.00000011,0.00000130,-0.00000296,0.00000015,0.00000582,0.00000675
 ,0.00000029\\\@


 NATURE WILL TELL YOU A DIRECT LIE IF SHE CAN.

                                -- CHARLES DARWIN
 Job cpu time:       0 days  2 hours 41 minutes 15.4 seconds.
 Elapsed time:       0 days  0 hours  4 minutes  4.8 seconds.
 File lengths (MBytes):  RWF=   1429 Int=      0 D2E=      0 Chk=     37 Scr=      1
 Normal termination of Gaussian 16 at Sat Jul 10 11:04:19 2021.
